<VTKFile type="UnstructuredGrid" version="0.1" byte_order="BigEndian">
  <UnstructuredGrid>
    <Piece NumberOfPoints="12556" NumberOfCells="25108">
      <PointData>
        <DataArray type="Float64" Name="position" NumberOfComponents="3" format="ascii">
0.060245 -0.153996 -0.98122
0.0602657 -0.154538 -0.981675
0.0612465 -0.154002 -0.981717
0.0612093 -0.153007 -0.981805
0.0602079 -0.153001 -0.981307
0.0601913 -0.152547 -0.981849
0.0602491 -0.154083 -0.982216
0.0602119 -0.153088 -0.982303
0.0602572 -0.154258 -0.984209
0.0602778 -0.154799 -0.984663
0.0612587 -0.154264 -0.984706
0.0612215 -0.153268 -0.984793
0.06022 -0.153262 -0.984296
0.0602035 -0.152808 -0.984838
0.0602985 -0.15534 -0.985118
0.0603191 -0.155882 -0.985572
0.0612999 -0.155346 -0.985615
0.0612628 -0.154351 -0.985702
0.0602241 -0.153349 -0.985292
0.0602447 -0.153891 -0.985747
0.0603025 -0.155427 -0.986114
0.0602654 -0.154432 -0.986201
0.058238 -0.153897 -0.979229
0.0582586 -0.154438 -0.979684
0.0592395 -0.153903 -0.979727
0.0592023 -0.152908 -0.979814
0.0582008 -0.152901 -0.979317
0.0581843 -0.152447 -0.979858
0.0582793 -0.154979 -0.980138
0.0582999 -0.155521 -0.980593
0.0592807 -0.154986 -0.980636
0.0592436 -0.15399 -0.980723
0.0592064 -0.152995 -0.98081
0.0581677 -0.151993 -0.9804
0.0591692 -0.151999 -0.980897
0.0581512 -0.151539 -0.980942
0.0592848 -0.155073 -0.981632
0.0583039 -0.155608 -0.981589
0.0591733 -0.152086 -0.981893
0.0581552 -0.151626 -0.981938
0.0592889 -0.15516 -0.982628
0.058308 -0.155695 -0.982585
0.0592517 -0.154164 -0.982715
0.0592145 -0.153169 -0.982802
0.0581965 -0.152708 -0.982847
0.0581759 -0.152167 -0.982392
0.0592929 -0.155247 -0.983624
0.0583121 -0.155782 -0.983581
0.0592557 -0.154251 -0.983711
0.0592186 -0.153256 -0.983799
0.0582005 -0.152796 -0.983843
0.059297 -0.155334 -0.98462
0.0583161 -0.155869 -0.984578
0.0582046 -0.152883 -0.984839
0.0583202 -0.155956 -0.985574
0.0582458 -0.153965 -0.985748
0.0582252 -0.153424 -0.985294
0.0583036 -0.155502 -0.986115
0.0582665 -0.154507 -0.986203
0.0562351 -0.153885 -0.978235
0.0562557 -0.154426 -0.978689
0.0572365 -0.153891 -0.978732
0.0562185 -0.15343 -0.978776
0.0562763 -0.154967 -0.979144
0.0562969 -0.155508 -0.979598
0.0572778 -0.154973 -0.979641
0.0562019 -0.152976 -0.979318
0.0561854 -0.152522 -0.97986
0.056301 -0.155596 -0.980594
0.0571703 -0.152074 -0.980899
0.0561894 -0.152609 -0.980856
0.056305 -0.155683 -0.981591
0.0571744 -0.152161 -0.981895
0.0561935 -0.152696 -0.981852
0.0563091 -0.15577 -0.982587
0.0571784 -0.152248 -0.982891
0.056177 -0.152242 -0.982394
0.0561604 -0.151788 -0.982936
0.0563297 -0.156311 -0.983041
0.0563503 -0.156852 -0.983496
0.0573312 -0.156317 -0.983539
0.0571825 -0.152335 -0.983887
0.0561645 -0.151875 -0.983932
0.0573353 -0.156404 -0.984535
0.0563544 -0.156939 -0.984492
0.0571866 -0.152422 -0.984884
0.0561685 -0.151962 -0.984928
0.0573393 -0.156491 -0.985531
0.0563585 -0.157027 -0.985488
0.0572278 -0.153505 -0.985793
0.0571906 -0.152509 -0.98588
0.0561726 -0.152049 -0.985924
0.0573434 -0.156579 -0.986527
0.0563625 -0.157114 -0.986484
0.0573062 -0.155583 -0.986614
0.057269 -0.154588 -0.986702
0.0572319 -0.153592 -0.986789
0.0561932 -0.15259 -0.986379
0.0562138 -0.153132 -0.986833
0.056346 -0.156659 -0.987026
0.0563294 -0.156205 -0.987568
0.0573103 -0.15567 -0.987611
0.0572731 -0.154675 -0.987698
0.0562344 -0.153673 -0.987288
0.0562551 -0.154214 -0.987742
0.0563129 -0.155751 -0.988109
0.0562757 -0.154756 -0.988197
0.0542733 -0.154955 -0.978149
0.054294 -0.155496 -0.978604
0.0552748 -0.154961 -0.978646
0.0542362 -0.153959 -0.978236
0.0542196 -0.153505 -0.978778
0.054298 -0.155583 -0.9796
0.054203 -0.153051 -0.97932
0.0541865 -0.152597 -0.979861
0.0543186 -0.156125 -0.980054
0.0543393 -0.156666 -0.980509
0.0553201 -0.156131 -0.980552
0.0541906 -0.152684 -0.980858
0.0553242 -0.156218 -0.981548
0.0543433 -0.156753 -0.981505
0.0541946 -0.152771 -0.981854
0.0553282 -0.156305 -0.982544
0.0543474 -0.15684 -0.982501
0.0551795 -0.152323 -0.982893
0.0541987 -0.152858 -0.98285
0.0543514 -0.156927 -0.983497
0.0551836 -0.15241 -0.983889
0.0542027 -0.152945 -0.983846
0.0543555 -0.157014 -0.984494
0.0551877 -0.152497 -0.984885
0.0542068 -0.153032 -0.984842
0.0553404 -0.156566 -0.985533
0.054339 -0.15656 -0.985035
0.0543224 -0.156106 -0.985577
0.054248 -0.154115 -0.985751
0.0542274 -0.153574 -0.985297
0.0552289 -0.15358 -0.985794
0.0551917 -0.152584 -0.985881
0.0553445 -0.156653 -0.986529
0.0543058 -0.155652 -0.986119
0.0553073 -0.155658 -0.986616
0.0542687 -0.154656 -0.986206
0.0552701 -0.154662 -0.986703
0.055233 -0.153667 -0.98679
0.0553114 -0.155745 -0.987612
0.0552742 -0.154749 -0.987699
0.0523076 -0.155938 -0.977067
0.0523282 -0.156479 -0.977522
0.053309 -0.155944 -0.977565
0.0532719 -0.154949 -0.977652
0.0522704 -0.154942 -0.977155
0.0522538 -0.154488 -0.977696
0.0533131 -0.156031 -0.978561
0.0523322 -0.156566 -0.978518
0.0522373 -0.154034 -0.978238
0.0522207 -0.15358 -0.97878
0.0523529 -0.157108 -0.978973
0.0523735 -0.157649 -0.979427
0.0533543 -0.157114 -0.97947
0.0533172 -0.156118 -0.979557
0.0532056 -0.153132 -0.979819
0.0522248 -0.153667 -0.979776
0.0533584 -0.157201 -0.980466
0.0523775 -0.157736 -0.980423
0.0522082 -0.153213 -0.980318
0.0521917 -0.152759 -0.980859
0.0533625 -0.157288 -0.981462
0.0523816 -0.157823 -0.981419
0.0521957 -0.152846 -0.981855
0.0533665 -0.157375 -0.982458
0.0523857 -0.15791 -0.982416
0.0521998 -0.152933 -0.982852
0.0523691 -0.157456 -0.982957
0.0523526 -0.157002 -0.983499
0.0522038 -0.15302 -0.983848
0.0523566 -0.157089 -0.984495
0.0522079 -0.153107 -0.984844
0.0533415 -0.156641 -0.985534
0.0523607 -0.157176 -0.985491
0.0522491 -0.15419 -0.985753
0.0522285 -0.153648 -0.985299
0.0523441 -0.156722 -0.986033
0.0523069 -0.155726 -0.98612
0.0522698 -0.154731 -0.986207
0.0503418 -0.156921 -0.975986
0.0503624 -0.157462 -0.97644
0.0513433 -0.156927 -0.976483
0.0513061 -0.155932 -0.97657
0.0503046 -0.155926 -0.976073
0.050288 -0.155471 -0.976614
0.0513473 -0.157014 -0.977479
0.0503665 -0.15755 -0.977436
0.0502715 -0.155017 -0.977156
0.0502549 -0.154563 -0.977698
0.0513514 -0.157102 -0.978475
0.0503705 -0.157637 -0.978432
0.0502384 -0.154109 -0.97824
0.0502218 -0.153655 -0.978781
0.0503746 -0.157724 -0.979429
0.0502259 -0.153742 -0.979777
0.0503786 -0.157811 -0.980425
0.0512108 -0.153294 -0.980816
0.0502299 -0.153829 -0.980774
0.0503827 -0.157898 -0.981421
0.0512149 -0.153381 -0.981813
0.050234 -0.153916 -0.98177
0.0503868 -0.157985 -0.982417
0.0512189 -0.153468 -0.982809
0.0502381 -0.154003 -0.982766
0.0513717 -0.157537 -0.983456
0.0503908 -0.158072 -0.983413
0.051223 -0.153555 -0.983805
0.0502421 -0.15409 -0.983762
0.0513758 -0.157624 -0.984452
0.0503949 -0.158159 -0.98441
0.051227 -0.153642 -0.984801
0.0502462 -0.154177 -0.984758
0.0513798 -0.157711 -0.985449
0.050399 -0.158246 -0.985406
0.0502874 -0.15526 -0.985667
0.0502668 -0.154719 -0.985213
0.0512683 -0.154725 -0.98571
0.0503824 -0.157792 -0.985948
0.0503658 -0.157338 -0.986489
0.0513467 -0.156803 -0.986532
0.0503287 -0.156343 -0.986576
0.050308 -0.155801 -0.986122
0.0503493 -0.156884 -0.987031
0.048376 -0.157904 -0.974904
0.0483966 -0.158446 -0.975358
0.0493775 -0.157911 -0.975401
0.0493403 -0.156915 -0.975488
0.0483388 -0.156909 -0.974991
0.0483223 -0.156455 -0.975533
0.0493815 -0.157998 -0.976397
0.0484007 -0.158533 -0.976355
0.0483057 -0.156 -0.976074
0.0482891 -0.155546 -0.976616
0.0493856 -0.158085 -0.977393
0.0484047 -0.15862 -0.977351
0.0482726 -0.155092 -0.977158
0.048256 -0.154638 -0.9777
0.0493897 -0.158172 -0.97839
0.0484088 -0.158707 -0.978347
0.049241 -0.15419 -0.978738
0.0482601 -0.154725 -0.978696
0.0493937 -0.158259 -0.979386
0.0484129 -0.158794 -0.979343
0.0482435 -0.154271 -0.979237
0.048227 -0.153817 -0.979779
0.0493978 -0.158346 -0.980382
0.0484169 -0.158881 -0.980339
0.048231 -0.153904 -0.980775
0.0494018 -0.158433 -0.981378
0.048421 -0.158968 -0.981335
0.0482351 -0.153991 -0.981771
0.0494059 -0.15852 -0.982374
0.048425 -0.159055 -0.982332
0.0482392 -0.154078 -0.982768
0.04941 -0.158607 -0.983371
0.0484291 -0.159143 -0.983328
0.0482804 -0.155161 -0.983677
0.0482598 -0.154619 -0.983222
0.0492613 -0.154625 -0.983719
0.049414 -0.158694 -0.984367
0.0484332 -0.15923 -0.984324
0.0492653 -0.154712 -0.984716
0.0482845 -0.155248 -0.984673
0.0494181 -0.158782 -0.985363
0.0484372 -0.159317 -0.98532
0.0482885 -0.155335 -0.985669
0.0484207 -0.158863 -0.985862
0.0484041 -0.158408 -0.986404
0.049385 -0.157873 -0.986446
0.0483298 -0.156417 -0.986578
0.0483091 -0.155876 -0.986124
0.0483876 -0.157954 -0.986945
0.0483504 -0.156959 -0.987033
0.0463771 -0.157979 -0.974905
0.0463977 -0.15852 -0.97536
0.0463605 -0.157525 -0.975447
0.0473414 -0.15699 -0.97549
0.0464183 -0.159062 -0.975814
0.046439 -0.159603 -0.976269
0.0474198 -0.159068 -0.976312
0.046344 -0.157071 -0.975989
0.0463274 -0.156617 -0.976531
0.0473083 -0.156081 -0.976573
0.0474239 -0.159155 -0.977308
0.046443 -0.15969 -0.977265
0.0463109 -0.156162 -0.977072
0.0462943 -0.155708 -0.977614
0.0472752 -0.155173 -0.977657
0.0474279 -0.159242 -0.978304
0.0464471 -0.159777 -0.978261
0.0462778 -0.155254 -0.978156
0.0462612 -0.1548 -0.978697
0.047432 -0.159329 -0.9793
0.0464511 -0.159864 -0.979257
0.0472461 -0.154352 -0.979736
0.0462653 -0.154887 -0.979693
0.0474361 -0.159416 -0.980296
0.0464552 -0.159951 -0.980254
0.0462487 -0.154433 -0.980235
0.0462321 -0.153978 -0.980777
0.0474401 -0.159503 -0.981293
0.0464593 -0.160039 -0.98125
0.0462362 -0.154066 -0.981773
0.0464427 -0.159584 -0.981792
0.0464262 -0.15913 -0.982333
0.0462403 -0.154153 -0.982769
0.0464302 -0.159217 -0.983329
0.0472624 -0.1547 -0.983721
0.0462443 -0.15424 -0.983765
0.0464343 -0.159304 -0.984326
0.0462856 -0.155322 -0.984674
0.0462649 -0.154781 -0.98422
0.0464383 -0.159392 -0.985322
0.0462896 -0.15541 -0.985671
0.0464218 -0.158937 -0.985864
0.0464052 -0.158483 -0.986405
0.0463309 -0.156492 -0.98658
0.0463102 -0.155951 -0.986125
0.0463887 -0.158029 -0.986947
0.0463515 -0.157033 -0.987034
0.0444154 -0.159049 -0.97482
0.044436 -0.159591 -0.975274
0.0454169 -0.159056 -0.975317
0.0443782 -0.158054 -0.974907
0.0443616 -0.1576 -0.975449
0.0444401 -0.159678 -0.976271
0.0443451 -0.157146 -0.97599
0.0443285 -0.156691 -0.976532
0.0444441 -0.159765 -0.977267
0.044312 -0.156237 -0.977074
0.0442954 -0.155783 -0.977616
0.0444647 -0.160306 -0.977721
0.0444854 -0.160848 -0.978176
0.0454662 -0.160312 -0.978219
0.0442789 -0.155329 -0.978157
0.0442623 -0.154875 -0.978699
0.0444688 -0.160393 -0.978717
0.0444522 -0.159939 -0.979259
0.0452472 -0.154427 -0.979738
0.0442457 -0.15442 -0.979241
0.0442292 -0.153966 -0.979782
0.0444563 -0.160026 -0.980255
0.0442332 -0.154053 -0.980778
0.0444604 -0.160113 -0.981251
0.0442373 -0.15414 -0.981775
0.0454453 -0.159665 -0.98229
0.0444644 -0.1602 -0.982248
0.0442414 -0.154228 -0.982771
0.0454494 -0.159752 -0.983287
0.0444685 -0.160288 -0.983244
0.0442454 -0.154315 -0.983767
0.0454534 -0.15984 -0.984283
0.0444726 -0.160375 -0.98424
0.0452675 -0.154862 -0.984719
0.0442495 -0.154402 -0.984763
0.0454575 -0.159927 -0.985279
0.0444766 -0.160462 -0.985236
0.0442907 -0.155484 -0.985672
0.0442701 -0.154943 -0.985218
0.0444601 -0.160008 -0.985778
0.0444435 -0.159553 -0.98632
0.0454244 -0.159018 -0.986362
0.0443691 -0.157562 -0.986494
0.0443485 -0.157021 -0.98604
0.04535 -0.157027 -0.986537
0.0443114 -0.156026 -0.986127
0.0444269 -0.159099 -0.986861
0.0443898 -0.158104 -0.986949
0.0424165 -0.159124 -0.974821
0.0424371 -0.159666 -0.975276
0.0423793 -0.158129 -0.974909
0.0423627 -0.157675 -0.97545
0.0424577 -0.160207 -0.97573
0.0424783 -0.160748 -0.976185
0.0434592 -0.160213 -0.976228
0.0423462 -0.15722 -0.975992
0.0433105 -0.156231 -0.976577
0.042309 -0.156225 -0.976079
0.0422925 -0.155771 -0.976621
0.042499 -0.161289 -0.976639
0.0425196 -0.161831 -0.977094
0.0435004 -0.161296 -0.977137
0.0434633 -0.1603 -0.977224
0.0432774 -0.155323 -0.97766
0.0422759 -0.155316 -0.977163
0.0422593 -0.154862 -0.977704
0.0435045 -0.161383 -0.978133
0.0425236 -0.161918 -0.97809
0.0432443 -0.154414 -0.978743
0.0422428 -0.154408 -0.978246
0.0422262 -0.153954 -0.978788
0.0435086 -0.16147 -0.979129
0.0425277 -0.162005 -0.979086
0.0434714 -0.160474 -0.979216
0.0422303 -0.154041 -0.979784
0.0435126 -0.161557 -0.980125
0.0425318 -0.162092 -0.980083
0.0434754 -0.160561 -0.980212
0.0432152 -0.153593 -0.980823
0.0422137 -0.153587 -0.980326
0.0421972 -0.153133 -0.980867
0.0425152 -0.161638 -0.980624
0.0424986 -0.161184 -0.981166
0.0434795 -0.160649 -0.981209
0.0432193 -0.15368 -0.981819
0.0422012 -0.15322 -0.981863
0.0434836 -0.160736 -0.982205
0.0425027 -0.161271 -0.982162
0.0432233 -0.153767 -0.982815
0.0422053 -0.153307 -0.98286
0.0434876 -0.160823 -0.983201
0.0425068 -0.161358 -0.983158
0.0432274 -0.153854 -0.983811
0.0422094 -0.153394 -0.983856
0.0434917 -0.16091 -0.984197
0.0425108 -0.161445 -0.984154
0.0422506 -0.154477 -0.984765
0.04223 -0.153935 -0.98431
0.0434958 -0.160997 -0.985193
0.0425149 -0.161532 -0.985151
0.0422918 -0.155559 -0.985674
0.0422712 -0.155018 -0.985219
0.0424983 -0.161078 -0.985692
0.0424818 -0.160624 -0.986234
0.0434626 -0.160089 -0.986277
0.0423703 -0.157637 -0.986496
0.0423496 -0.157096 -0.986041
0.0423125 -0.1561 -0.986128
0.0424652 -0.16017 -0.986776
0.042428 -0.159174 -0.986863
0.0423909 -0.158179 -0.98695
0.0404548 -0.160194 -0.974736
0.0404754 -0.160736 -0.97519
0.0414562 -0.160201 -0.975233
0.0404176 -0.159199 -0.974823
0.0403804 -0.158204 -0.97491
0.0413447 -0.157214 -0.975495
0.0403432 -0.157208 -0.974997
0.0403267 -0.156754 -0.975539
0.040496 -0.161277 -0.975645
0.0405166 -0.161818 -0.976099
0.0414975 -0.161283 -0.976142
0.0403101 -0.1563 -0.976081
0.0412744 -0.15531 -0.976665
0.0402729 -0.155304 -0.976168
0.0412372 -0.154315 -0.976753
0.0402358 -0.154309 -0.976255
0.0402192 -0.153854 -0.976797
0.0405207 -0.161906 -0.977096
0.0412413 -0.154402 -0.977749
0.0402026 -0.1534 -0.977339
0.0412041 -0.153406 -0.977836
0.0401861 -0.152946 -0.97788
0.0405413 -0.162447 -0.97755
0.0405619 -0.162988 -0.978005
0.0415428 -0.162453 -0.978047
0.0412082 -0.153494 -0.978832
0.0401695 -0.152492 -0.978422
0.041171 -0.152498 -0.978919
0.040153 -0.152038 -0.978964
0.0415468 -0.16254 -0.979044
0.040566 -0.163075 -0.979001
0.0412123 -0.153581 -0.979828
0.0411751 -0.152585 -0.979916
0.0401364 -0.151583 -0.979505
0.0411379 -0.15159 -0.980003
0.0401199 -0.151129 -0.980047
0.0405494 -0.162621 -0.979542
0.0405329 -0.162167 -0.980084
0.0411791 -0.152672 -0.980912
0.041142 -0.151677 -0.980999
0.0401239 -0.151216 -0.981043
0.0415178 -0.161719 -0.981123
0.0405369 -0.162254 -0.98108
0.0411832 -0.152759 -0.981908
0.041146 -0.151764 -0.981995
0.040128 -0.151303 -0.98204
0.0415219 -0.161806 -0.982119
0.040541 -0.162341 -0.982076
0.0411873 -0.152846 -0.982904
0.0411501 -0.151851 -0.982991
0.040132 -0.151391 -0.983036
0.0415259 -0.161893 -0.983115
0.0405451 -0.162428 -0.983073
0.0411913 -0.152934 -0.9839
0.0401527 -0.151932 -0.98349
0.0401733 -0.152473 -0.983945
0.04153 -0.16198 -0.984112
0.0405491 -0.162515 -0.984069
0.0412326 -0.154016 -0.984809
0.0402145 -0.153556 -0.984854
0.0401939 -0.153015 -0.984399
0.041534 -0.162067 -0.985108
0.0405532 -0.162602 -0.985065
0.0412738 -0.155099 -0.985718
0.0402558 -0.154638 -0.985763
0.0402351 -0.154097 -0.985308
0.0415381 -0.162154 -0.986104
0.0405572 -0.16269 -0.986061
0.0415009 -0.161159 -0.986191
0.0413522 -0.157177 -0.98654
0.0403342 -0.156717 -0.986584
0.0403136 -0.156175 -0.98613
0.0402764 -0.15518 -0.986217
0.0405407 -0.162235 -0.986603
0.0405035 -0.16124 -0.98669
0.0404663 -0.160244 -0.986777
0.0404292 -0.159249 -0.986865
0.040392 -0.158253 -0.986952
0.0403548 -0.157258 -0.987039
0.0417425 -0.194353 -0.986801
0.0417632 -0.194894 -0.987256
0.042744 -0.194359 -0.987298
0.0427068 -0.193363 -0.987386
0.0417054 -0.193357 -0.986888
0.0426697 -0.192368 -0.987473
0.0416682 -0.192362 -0.986976
0.0426325 -0.191372 -0.98756
0.041631 -0.191366 -0.987063
0.0425953 -0.190377 -0.987647
0.0415938 -0.190371 -0.98715
0.0425581 -0.189381 -0.987734
0.0415567 -0.189375 -0.987237
0.042521 -0.188386 -0.987822
0.0415195 -0.18838 -0.987324
0.0424838 -0.18739 -0.987909
0.0414823 -0.187384 -0.987412
0.0414657 -0.18693 -0.987953
0.0417466 -0.19444 -0.987797
0.0417094 -0.193444 -0.987885
0.0416722 -0.192449 -0.987972
0.0416351 -0.191453 -0.988059
0.0416185 -0.190999 -0.988601
0.0425994 -0.190464 -0.988643
0.0425622 -0.189468 -0.988731
0.042525 -0.188473 -0.988818
0.0424878 -0.187477 -0.988905
0.0414492 -0.186476 -0.988495
0.0424507 -0.186482 -0.988992
0.0424135 -0.185486 -0.989079
0.041412 -0.18548 -0.988582
0.0423763 -0.184491 -0.989167
0.0413748 -0.184485 -0.988669
0.0413583 -0.18403 -0.989211
0.0426034 -0.190551 -0.98964
0.0416226 -0.191086 -0.989597
0.0425663 -0.189555 -0.989727
0.0425291 -0.18856 -0.989814
0.0424919 -0.187564 -0.989901
0.0424547 -0.186569 -0.989988
0.0424175 -0.185573 -0.990076
0.0423804 -0.184578 -0.990163
0.0413417 -0.183576 -0.989753
0.0423432 -0.183582 -0.99025
0.0413252 -0.183122 -0.990294
0.041606 -0.190632 -0.990138
0.0415688 -0.189636 -0.990226
0.0415523 -0.189182 -0.990767
0.0425331 -0.188647 -0.99081
0.042496 -0.187652 -0.990897
0.0424588 -0.186656 -0.990985
0.0424216 -0.185661 -0.991072
0.0423844 -0.184665 -0.991159
0.0423473 -0.18367 -0.991246
0.0413086 -0.182668 -0.990836
0.0423101 -0.182674 -0.991333
0.041292 -0.182214 -0.991378
0.0415357 -0.188728 -0.991309
0.0414985 -0.187732 -0.991396
0.0414614 -0.186737 -0.991483
0.0414242 -0.185742 -0.991571
0.041387 -0.184746 -0.991658
0.0413498 -0.183751 -0.991745
0.0413127 -0.182755 -0.991832
0.0392163 -0.180739 -0.967925
0.0392369 -0.18128 -0.96838
0.0402178 -0.180745 -0.968423
0.0391997 -0.180285 -0.968467
0.0402218 -0.180832 -0.969419
0.039241 -0.181368 -0.969376
0.0392038 -0.180372 -0.969463
0.0392244 -0.180913 -0.969918
0.0390385 -0.175936 -0.970354
0.0390591 -0.176477 -0.970808
0.04004 -0.175942 -0.970851
0.039022 -0.175482 -0.970895
0.0390426 -0.176023 -0.97135
0.0380388 -0.149145 -0.973704
0.0380594 -0.149686 -0.974159
0.0390403 -0.149151 -0.974202
0.0390031 -0.148155 -0.974289
0.0380016 -0.148149 -0.973792
0.0389659 -0.14716 -0.974376
0.0379644 -0.147154 -0.973879
0.0389287 -0.146164 -0.974463
0.0379273 -0.146158 -0.973966
0.0379107 -0.145704 -0.974508
0.0383403 -0.157196 -0.974003
0.0383609 -0.157737 -0.974457
0.0393417 -0.157202 -0.9745
0.0393046 -0.156206 -0.974587
0.0383031 -0.1562 -0.97409
0.0392674 -0.155211 -0.974675
0.0382659 -0.155205 -0.974177
0.0392302 -0.154215 -0.974762
0.0382287 -0.154209 -0.974264
0.039193 -0.15322 -0.974849
0.0381916 -0.153214 -0.974352
0.0391559 -0.152224 -0.974936
0.0381544 -0.152218 -0.974439
0.0391187 -0.151229 -0.975023
0.0381172 -0.151223 -0.974526
0.0390815 -0.150233 -0.975111
0.03808 -0.150227 -0.974613
0.0390443 -0.149238 -0.975198
0.0390072 -0.148242 -0.975285
0.03897 -0.147247 -0.975372
0.0389328 -0.146251 -0.975459
0.0378941 -0.14525 -0.975049
0.0388956 -0.145256 -0.975547
0.0378776 -0.144796 -0.975591
0.0385302 -0.16226 -0.974563
0.0385508 -0.162802 -0.975018
0.0395317 -0.162266 -0.97506
0.0394945 -0.161271 -0.975148
0.038493 -0.161265 -0.97465
0.0384559 -0.160269 -0.974737
0.0384187 -0.159274 -0.974825
0.0383815 -0.158278 -0.974912
0.0393086 -0.156293 -0.975584
0.0392715 -0.155298 -0.975671
0.0392343 -0.154302 -0.975758
0.0391971 -0.153307 -0.975845
0.0391599 -0.152311 -0.975932
0.0391227 -0.151316 -0.97602
0.0390856 -0.15032 -0.976107
0.0390484 -0.149325 -0.976194
0.0390112 -0.148329 -0.976281
0.038974 -0.147334 -0.976368
0.0389369 -0.146338 -0.976456
0.0388997 -0.145343 -0.976543
0.0378816 -0.144883 -0.976587
0.0395358 -0.162354 -0.976057
0.0385549 -0.162889 -0.976014
0.0392012 -0.153394 -0.976841
0.039164 -0.152399 -0.976929
0.0391268 -0.151403 -0.977016
0.0390896 -0.150408 -0.977103
0.0390525 -0.149412 -0.97719
0.0390153 -0.148417 -0.977277
0.0389781 -0.147421 -0.977365
0.0389409 -0.146426 -0.977452
0.0389037 -0.14543 -0.977539
0.0378651 -0.144428 -0.977129
0.0388666 -0.144435 -0.977626
0.0378485 -0.143974 -0.977671
0.0385755 -0.16343 -0.976468
0.0385961 -0.163971 -0.976923
0.039577 -0.163436 -0.976966
0.0395398 -0.162441 -0.977053
0.0391681 -0.152486 -0.977925
0.0391309 -0.15149 -0.978012
0.0390937 -0.150495 -0.978099
0.0390565 -0.149499 -0.978186
0.0390193 -0.148504 -0.978274
0.0389822 -0.147508 -0.978361
0.038945 -0.146513 -0.978448
0.0389078 -0.145517 -0.978535
0.0388706 -0.144522 -0.978622
0.0378526 -0.144061 -0.978667
0.0395811 -0.163523 -0.977962
0.0386002 -0.164058 -0.977919
0.0391349 -0.151577 -0.979008
0.0390978 -0.150582 -0.979095
0.0390606 -0.149586 -0.979183
0.0390234 -0.148591 -0.97927
0.0389862 -0.147595 -0.979357
0.0389491 -0.1466 -0.979444
0.0389119 -0.145604 -0.979531
0.0388747 -0.144609 -0.979619
0.0378567 -0.144148 -0.979663
0.0395851 -0.16361 -0.978958
0.0386043 -0.164146 -0.978915
0.0391018 -0.150669 -0.980092
0.0390646 -0.149673 -0.980179
0.0390275 -0.148678 -0.980266
0.0389903 -0.147682 -0.980353
0.0389531 -0.146687 -0.98044
0.0389159 -0.145691 -0.980528
0.0388788 -0.144696 -0.980615
0.0378607 -0.144236 -0.980659
0.0395892 -0.163697 -0.979954
0.0386083 -0.164233 -0.979911
0.039552 -0.162702 -0.980041
0.0391059 -0.150756 -0.981088
0.0390687 -0.149761 -0.981175
0.0390315 -0.148765 -0.981262
0.0389944 -0.14777 -0.981349
0.0389572 -0.146774 -0.981437
0.03892 -0.145779 -0.981524
0.0378813 -0.144777 -0.981114
0.037902 -0.145318 -0.981568
0.0385918 -0.163778 -0.980453
0.0385752 -0.163324 -0.980995
0.0395561 -0.162789 -0.981038
0.0391099 -0.150843 -0.982084
0.0390728 -0.149848 -0.982171
0.0390356 -0.148852 -0.982258
0.0389984 -0.147857 -0.982346
0.0379598 -0.146855 -0.981935
0.0379804 -0.147396 -0.98239
0.0379226 -0.145859 -0.982023
0.0395601 -0.162876 -0.982034
0.0385793 -0.163411 -0.981991
0.039114 -0.15093 -0.98308
0.0390768 -0.149935 -0.983167
0.0380382 -0.148933 -0.982757
0.0380588 -0.149474 -0.983212
0.038001 -0.147938 -0.982844
0.0395642 -0.162963 -0.98303
0.0385833 -0.163498 -0.982987
0.0391552 -0.152013 -0.983989
0.0391181 -0.151017 -0.984076
0.0380794 -0.150016 -0.983666
0.0381 -0.150557 -0.984121
0.0395683 -0.16305 -0.984026
0.0385874 -0.163586 -0.983983
0.0391965 -0.153095 -0.984898
0.0391593 -0.1521 -0.984985
0.0381207 -0.151098 -0.984575
0.0381413 -0.15164 -0.98503
0.0395723 -0.163138 -0.985022
0.0385915 -0.163673 -0.984979
0.0392377 -0.154178 -0.985807
0.0382197 -0.153718 -0.985851
0.0381991 -0.153176 -0.985397
0.0381619 -0.152181 -0.985484
0.0395764 -0.163225 -0.986018
0.0385955 -0.16376 -0.985976
0.0393161 -0.156256 -0.986629
0.0382981 -0.155796 -0.986673
0.0382775 -0.155255 -0.986219
0.0382403 -0.154259 -0.986306
0.038579 -0.163306 -0.986517
0.0385624 -0.162851 -0.987059
0.0395433 -0.162316 -0.987102
0.0395061 -0.161321 -0.987189
0.0394689 -0.160325 -0.987276
0.0394317 -0.15933 -0.987363
0.0384137 -0.158869 -0.987408
0.0383931 -0.158328 -0.986953
0.0383559 -0.157333 -0.987041
0.0383187 -0.156337 -0.987128
0.0397355 -0.194253 -0.98481
0.0397561 -0.194794 -0.985265
0.040737 -0.194259 -0.985308
0.0406998 -0.193264 -0.985395
0.0396983 -0.193258 -0.984898
0.0406626 -0.192268 -0.985482
0.0396612 -0.192262 -0.984985
0.0406255 -0.191273 -0.985569
0.039624 -0.191267 -0.985072
0.0405883 -0.190277 -0.985656
0.0395868 -0.190271 -0.985159
0.0405511 -0.189282 -0.985744
0.0395496 -0.189276 -0.985246
0.0405139 -0.188286 -0.985831
0.0395125 -0.18828 -0.985334
0.0404768 -0.187291 -0.985918
0.0394753 -0.187285 -0.985421
0.0404396 -0.186295 -0.986005
0.0394381 -0.186289 -0.985508
0.0404024 -0.1853 -0.986092
0.0394009 -0.185294 -0.985595
0.0393844 -0.184839 -0.986137
0.0385458 -0.162397 -0.987601
0.0385087 -0.161402 -0.987688
0.0384715 -0.160406 -0.987775
0.0384343 -0.159411 -0.987862
0.0398139 -0.196331 -0.985632
0.0398346 -0.196873 -0.986087
0.0408154 -0.196337 -0.986129
0.0407782 -0.195342 -0.986217
0.0397768 -0.195336 -0.985719
0.0407411 -0.194346 -0.986304
0.0407039 -0.193351 -0.986391
0.0406667 -0.192355 -0.986478
0.0406295 -0.19136 -0.986565
0.0405923 -0.190364 -0.986653
0.0405552 -0.189369 -0.98674
0.040518 -0.188373 -0.986827
0.0404808 -0.187378 -0.986914
0.0404436 -0.186382 -0.987001
0.0404065 -0.185387 -0.987089
0.0393678 -0.184385 -0.986679
0.0403693 -0.184391 -0.987176
0.0403321 -0.183396 -0.987263
0.0393306 -0.18339 -0.986766
0.0393141 -0.182936 -0.987307
0.0408195 -0.196424 -0.987126
0.0398386 -0.19696 -0.987083
0.0407823 -0.195429 -0.987213
0.0404477 -0.18647 -0.987998
0.0404105 -0.185474 -0.988085
0.0403733 -0.184479 -0.988172
0.0403362 -0.183483 -0.988259
0.0392975 -0.182481 -0.987849
0.040299 -0.182488 -0.988346
0.0402618 -0.181492 -0.988434
0.0392603 -0.181486 -0.987936
0.0392438 -0.181032 -0.988478
0.0408235 -0.196512 -0.988122
0.0398427 -0.197047 -0.988079
0.0407864 -0.195516 -0.988209
0.0407492 -0.194521 -0.988296
0.040712 -0.193525 -0.988383
0.0406748 -0.19253 -0.988471
0.0406377 -0.191534 -0.988558
0.0403402 -0.18357 -0.989255
0.0403031 -0.182575 -0.989343
0.0402659 -0.181579 -0.98943
0.0392272 -0.180577 -0.98902
0.0402287 -0.180584 -0.989517
0.0392107 -0.180123 -0.989561
0.0398261 -0.196593 -0.988621
0.0397889 -0.195597 -0.988708
0.0397724 -0.195143 -0.98925
0.0407532 -0.194608 -0.989292
0.0407161 -0.193612 -0.98938
0.0406789 -0.192617 -0.989467
0.0406417 -0.191621 -0.989554
0.0403071 -0.182662 -0.990339
0.0402699 -0.181666 -0.990426
0.0402328 -0.180671 -0.990513
0.0392147 -0.18021 -0.990558
0.0397558 -0.194689 -0.989791
0.0397186 -0.193693 -0.989878
0.0397021 -0.193239 -0.99042
0.040683 -0.192704 -0.990463
0.0406458 -0.191708 -0.99055
0.0406086 -0.190713 -0.990637
0.0405714 -0.189717 -0.990725
0.040274 -0.181753 -0.991422
0.0402368 -0.180758 -0.991509
0.0391982 -0.179756 -0.991099
0.0401996 -0.179762 -0.991597
0.0391816 -0.179302 -0.991641
0.0396855 -0.192785 -0.990962
0.0396484 -0.191789 -0.991049
0.0396112 -0.190794 -0.991136
0.039574 -0.189798 -0.991223
0.0395574 -0.189344 -0.991765
0.0405383 -0.188809 -0.991808
0.0405011 -0.187813 -0.991895
0.040464 -0.186818 -0.991982
0.0404268 -0.185822 -0.99207
0.0403896 -0.184827 -0.992157
0.0403524 -0.183831 -0.992244
0.0403152 -0.182836 -0.992331
0.0402781 -0.18184 -0.992418
0.0402409 -0.180845 -0.992506
0.0402037 -0.179849 -0.992593
0.0391857 -0.179389 -0.992637
0.0395409 -0.18889 -0.992307
0.0395037 -0.187894 -0.992394
0.0394665 -0.186899 -0.992481
0.0394294 -0.185903 -0.992568
0.0393922 -0.184908 -0.992656
0.039355 -0.183912 -0.992743
0.0393178 -0.182917 -0.99283
0.0392806 -0.181921 -0.992917
0.0392435 -0.180926 -0.993004
0.0392063 -0.17993 -0.993092
0.0374323 -0.186613 -0.965411
0.0374529 -0.187154 -0.965866
0.0384338 -0.186619 -0.965909
0.0383966 -0.185623 -0.965996
0.0373951 -0.185617 -0.965499
0.0383594 -0.184628 -0.966083
0.037358 -0.184622 -0.965586
0.0373414 -0.184168 -0.966127
0.0374736 -0.187695 -0.96632
0.0374942 -0.188237 -0.966775
0.038475 -0.187701 -0.966818
0.0384379 -0.186706 -0.966905
0.0384007 -0.18571 -0.966992
0.0383635 -0.184715 -0.967079
0.0373248 -0.183713 -0.966669
0.0383263 -0.18372 -0.967166
0.0382891 -0.182724 -0.967254
0.0372877 -0.182718 -0.966756
0.038252 -0.181729 -0.967341
0.0372505 -0.181722 -0.966844
0.0382148 -0.180733 -0.967428
0.0372133 -0.180727 -0.966931
0.0381776 -0.179738 -0.967515
0.0371761 -0.179731 -0.967018
0.0381404 -0.178742 -0.967602
0.037139 -0.178736 -0.967105
0.0381033 -0.177747 -0.96769
0.0371018 -0.17774 -0.967192
0.0370852 -0.177286 -0.967734
0.0384791 -0.187789 -0.967814
0.0374982 -0.188324 -0.967771
0.0384419 -0.186793 -0.967901
0.0384047 -0.185798 -0.967988
0.0383676 -0.184802 -0.968075
0.0383304 -0.183807 -0.968163
0.0382932 -0.182811 -0.96825
0.038256 -0.181816 -0.968337
0.0381817 -0.179825 -0.968511
0.0381445 -0.178829 -0.968599
0.0381073 -0.177834 -0.968686
0.0370687 -0.176832 -0.968276
0.0380701 -0.176838 -0.968773
0.038033 -0.175843 -0.96886
0.0370315 -0.175836 -0.968363
0.0379958 -0.174847 -0.968947
0.0369943 -0.174841 -0.96845
0.0379586 -0.173852 -0.969035
0.0369571 -0.173845 -0.968537
0.0369406 -0.173391 -0.969079
0.0360277 -0.148958 -0.970717
0.0360483 -0.149499 -0.971172
0.0370292 -0.148964 -0.971215
0.0360112 -0.148504 -0.971259
0.0374817 -0.18787 -0.968313
0.0374651 -0.187415 -0.968854
0.038446 -0.18688 -0.968897
0.0384088 -0.185885 -0.968984
0.0383716 -0.184889 -0.969072
0.0383344 -0.183894 -0.969159
0.0382973 -0.182898 -0.969246
0.0382601 -0.181903 -0.969333
0.0381857 -0.179912 -0.969508
0.0381486 -0.178916 -0.969595
0.0381114 -0.177921 -0.969682
0.0380742 -0.176925 -0.969769
0.038037 -0.17593 -0.969856
0.0379999 -0.174934 -0.969944
0.0379627 -0.173939 -0.970031
0.036924 -0.172937 -0.969621
0.0379255 -0.172943 -0.970118
0.0378883 -0.171948 -0.970205
0.0368868 -0.171942 -0.969708
0.0368703 -0.171487 -0.97025
0.0361433 -0.152032 -0.971452
0.0361639 -0.152573 -0.971906
0.0371448 -0.152038 -0.971949
0.0371076 -0.151042 -0.972036
0.0361061 -0.151036 -0.971539
0.0370704 -0.150047 -0.972124
0.0360689 -0.150041 -0.971626
0.0370332 -0.149051 -0.972211
0.0359946 -0.14805 -0.971801
0.0369961 -0.148056 -0.972298
0.0369589 -0.14706 -0.972385
0.0359574 -0.147054 -0.971888
0.0369217 -0.146065 -0.972472
0.0359202 -0.146059 -0.971975
0.0359037 -0.145604 -0.972517
0.0374486 -0.186961 -0.969396
0.037432 -0.186507 -0.969938
0.0384129 -0.185972 -0.969981
0.0383757 -0.184976 -0.970068
0.0383385 -0.183981 -0.970155
0.0383013 -0.182985 -0.970242
0.0382642 -0.18199 -0.970329
0.038227 -0.180994 -0.970417
0.0381898 -0.179999 -0.970504
0.0381526 -0.179003 -0.970591
0.0381154 -0.178008 -0.970678
0.0380783 -0.177012 -0.970765
0.0380039 -0.175021 -0.97094
0.0379667 -0.174026 -0.971027
0.0379296 -0.17303 -0.971114
0.0378924 -0.172035 -0.971201
0.0368537 -0.171033 -0.970791
0.0378552 -0.171039 -0.971289
0.037818 -0.170044 -0.971376
0.0368166 -0.170038 -0.970879
0.0368 -0.169584 -0.97142
0.0362217 -0.15411 -0.972274
0.0362423 -0.154651 -0.972728
0.0372232 -0.154116 -0.972771
0.037186 -0.15312 -0.972858
0.0361845 -0.153114 -0.972361
0.0371488 -0.152125 -0.972945
0.0371117 -0.151129 -0.973033
0.0370745 -0.150134 -0.97312
0.0370373 -0.149138 -0.973207
0.0370001 -0.148143 -0.973294
0.036963 -0.147147 -0.973381
0.0369258 -0.146152 -0.973469
0.0359077 -0.145692 -0.973513
0.0374154 -0.186053 -0.970479