<VTKFile type="UnstructuredGrid" version="0.1" byte_order="BigEndian">
  <UnstructuredGrid>
    <Piece NumberOfPoints="12556" NumberOfCells="25108">
      <PointData>
        <DataArray type="Float64" Name="position" NumberOfComponents="3" format="ascii">
0.0583171 -0.141756 -0.981221
0.0583348 -0.14229 -0.981684
0.0593177 -0.141758 -0.98172
0.0592842 -0.140761 -0.981791
0.0582837 -0.140759 -0.981292
0.0582679 -0.140296 -0.981826
0.0583191 -0.141827 -0.982218
0.0582856 -0.14083 -0.982289
0.0583231 -0.141969 -0.984213
0.0583408 -0.142503 -0.984676
0.0593237 -0.141971 -0.984712
0.0592902 -0.140974 -0.984783
0.0582896 -0.140972 -0.984284
0.0582739 -0.140509 -0.984818
0.0583585 -0.143037 -0.985139
0.0583762 -0.143571 -0.985603
0.0593591 -0.143039 -0.985638
0.0593257 -0.142042 -0.98571
0.0582916 -0.141043 -0.985282
0.0583093 -0.141577 -0.985745
0.0583605 -0.143108 -0.986137
0.0583271 -0.142111 -0.986208
0.0563139 -0.141681 -0.979225
0.0563317 -0.142215 -0.979688
0.0573145 -0.141683 -0.979724
0.0572811 -0.140686 -0.979795
0.0562805 -0.140684 -0.979296
0.0562648 -0.140221 -0.97983
0.0563494 -0.142749 -0.980151
0.0563671 -0.143283 -0.980614
0.05735 -0.142751 -0.98065
0.0573165 -0.141754 -0.980721
0.0572831 -0.140757 -0.980793
0.056249 -0.139758 -0.980365
0.0572496 -0.13976 -0.980864
0.0562333 -0.139295 -0.980899
0.057352 -0.142822 -0.981648
0.0563691 -0.143354 -0.981612
0.0572516 -0.139831 -0.981861
0.0562353 -0.139366 -0.981896
0.057354 -0.142893 -0.982645
0.0563711 -0.143425 -0.982609
0.0573205 -0.141896 -0.982716
0.0572871 -0.140899 -0.982787
0.0562707 -0.140434 -0.982823
0.056253 -0.1399 -0.982359
0.0573559 -0.142964 -0.983643
0.0563731 -0.143496 -0.983607
0.0573225 -0.141967 -0.983714
0.057289 -0.14097 -0.983785
0.0562727 -0.140505 -0.98382
0.0573579 -0.143035 -0.98464
0.0563751 -0.143567 -0.984604
0.0562747 -0.140576 -0.984818
0.0563771 -0.143638 -0.985602
0.0563102 -0.141644 -0.985744
0.0562925 -0.14111 -0.985281
0.0563613 -0.143175 -0.986136
0.0563279 -0.142178 -0.986207
0.0543128 -0.141677 -0.978227
0.0543305 -0.142211 -0.97869
0.0553134 -0.141679 -0.978726
0.054297 -0.141214 -0.978761
0.0543482 -0.142745 -0.979153
0.0543659 -0.143279 -0.979616
0.0553488 -0.142747 -0.979652
0.0542813 -0.140751 -0.979295
0.0542656 -0.140288 -0.979829
0.0543679 -0.14335 -0.980614
0.0552504 -0.139827 -0.980863
0.0542676 -0.140359 -0.980827
0.0543699 -0.143421 -0.981611
0.0552524 -0.139898 -0.98186
0.0542696 -0.14043 -0.981824
0.0543719 -0.143492 -0.982609
0.0552544 -0.139969 -0.982858
0.0542539 -0.139967 -0.982359
0.0542381 -0.139504 -0.982893
0.0543896 -0.144026 -0.983072
0.0544074 -0.14456 -0.983535
0.0553902 -0.144028 -0.983571
0.0552564 -0.14004 -0.983855
0.0542401 -0.139575 -0.98389
0.0553922 -0.144099 -0.984568
0.0544094 -0.144631 -0.984532
0.0552584 -0.140111 -0.984853
0.0542421 -0.139647 -0.984888
0.0553942 -0.14417 -0.985566
0.0544114 -0.144702 -0.98553
0.0552939 -0.141179 -0.985779
0.0552604 -0.140183 -0.98585
0.0542441 -0.139718 -0.985885
0.0553962 -0.144241 -0.986563
0.0544133 -0.144773 -0.986527
0.0553628 -0.143244 -0.986634
0.0553293 -0.142247 -0.986705
0.0552959 -0.141251 -0.986777
0.0542618 -0.140252 -0.986349
0.0542795 -0.140786 -0.986812
0.0543976 -0.14431 -0.987062
0.0543819 -0.143847 -0.987596
0.0553648 -0.143315 -0.987632
0.0553313 -0.142319 -0.987703
0.0542973 -0.14132 -0.987275
0.054315 -0.141854 -0.987738
0.0543662 -0.143385 -0.98813
0.0543327 -0.142388 -0.988201
0.052347 -0.142741 -0.978155
0.0523648 -0.143275 -0.978618
0.0533476 -0.142743 -0.978654
0.0523136 -0.141744 -0.978226
0.0522979 -0.141281 -0.97876
0.0523668 -0.143346 -0.979615
0.0522821 -0.140818 -0.979294
0.0522664 -0.140355 -0.979829
0.0523845 -0.14388 -0.980079
0.0524022 -0.144414 -0.980542
0.0533851 -0.143882 -0.980578
0.0522684 -0.140426 -0.980826
0.0533871 -0.143953 -0.981575
0.0524042 -0.144485 -0.981539
0.0522704 -0.140497 -0.981824
0.0533891 -0.144024 -0.982573
0.0524062 -0.144556 -0.982537
0.0532553 -0.140036 -0.982857
0.0522724 -0.140568 -0.982821
0.0524082 -0.144627 -0.983534
0.0532573 -0.140107 -0.983855
0.0522744 -0.140639 -0.983819
0.0524102 -0.144698 -0.984532
0.0532592 -0.140179 -0.984852
0.0522764 -0.14071 -0.984816
0.053395 -0.144237 -0.985565
0.0523945 -0.144235 -0.985066
0.0523787 -0.143772 -0.9856
0.0523118 -0.141778 -0.985742
0.0522941 -0.141244 -0.985279
0.0532947 -0.141247 -0.985778
0.0532612 -0.14025 -0.985849
0.053397 -0.144308 -0.986562
0.052363 -0.143309 -0.986134
0.0533636 -0.143311 -0.986634
0.0523296 -0.142312 -0.986206
0.0533301 -0.142314 -0.986705
0.0532967 -0.141318 -0.986776
0.0533656 -0.143382 -0.987631
0.0533321 -0.142386 -0.987702
0.0503793 -0.143734 -0.977085
0.0503971 -0.144268 -0.977549
0.0513799 -0.143736 -0.977584
0.0513465 -0.142739 -0.977656
0.0503459 -0.142737 -0.977156
0.0503302 -0.142274 -0.977691
0.0513819 -0.143807 -0.978582
0.050399 -0.144339 -0.978546
0.0503144 -0.141811 -0.978225
0.0502987 -0.141348 -0.978759
0.0504168 -0.144873 -0.979009
0.0504345 -0.145407 -0.979472
0.0514174 -0.144875 -0.979508
0.0513839 -0.143878 -0.979579
0.0512836 -0.140887 -0.979793
0.0503007 -0.141419 -0.979757
0.0514193 -0.144946 -0.980506
0.0504365 -0.145478 -0.98047
0.050285 -0.140956 -0.980291
0.0502692 -0.140493 -0.980825
0.0514213 -0.145017 -0.981503
0.0504385 -0.145549 -0.981467
0.0502712 -0.140564 -0.981823
0.0514233 -0.145088 -0.982501
0.0504405 -0.14562 -0.982465
0.0502732 -0.140635 -0.98282
0.0504247 -0.145157 -0.982999
0.050409 -0.144694 -0.983533
0.0502752 -0.140706 -0.983818
0.050411 -0.144765 -0.984531
0.0502772 -0.140777 -0.984815
0.0513959 -0.144304 -0.985564
0.050413 -0.144836 -0.985528
0.0503127 -0.141845 -0.985742
0.0502949 -0.141311 -0.985278
0.0503973 -0.144373 -0.986063
0.0503638 -0.143376 -0.986134
0.0503304 -0.142379 -0.986205
0.0484116 -0.144726 -0.976016
0.0484293 -0.14526 -0.976479
0.0494122 -0.144728 -0.976515
0.0493787 -0.143732 -0.976586
0.0483782 -0.143729 -0.976087
0.0483624 -0.143267 -0.976621
0.0494142 -0.1448 -0.977513
0.0484313 -0.145331 -0.977477
0.0483467 -0.142804 -0.977156
0.048331 -0.142341 -0.97769
0.0494162 -0.144871 -0.97851
0.0484333 -0.145403 -0.978474
0.0483153 -0.141878 -0.978224
0.0482995 -0.141415 -0.978759
0.0484353 -0.145474 -0.979472
0.0483015 -0.141486 -0.979756
0.0484373 -0.145545 -0.980469
0.0492864 -0.141025 -0.980789
0.0483035 -0.141557 -0.980753
0.0484393 -0.145616 -0.981467
0.0492884 -0.141096 -0.981787
0.0483055 -0.141628 -0.981751
0.0484413 -0.145687 -0.982464
0.0492904 -0.141167 -0.982784
0.0483075 -0.141699 -0.982748
0.0494262 -0.145226 -0.983497
0.0484433 -0.145758 -0.983461
0.0492924 -0.141238 -0.983782
0.0483095 -0.14177 -0.983746
0.0494281 -0.145297 -0.984495
0.0484453 -0.145829 -0.984459
0.0492944 -0.141309 -0.984779
0.0483115 -0.141841 -0.984743
0.0494301 -0.145368 -0.985492
0.0484473 -0.1459 -0.985456
0.0483469 -0.142909 -0.98567
0.0483292 -0.142375 -0.985207
0.0493298 -0.142377 -0.985706
0.0484316 -0.145437 -0.985991
0.0484158 -0.144974 -0.986525
0.0493987 -0.144442 -0.986561
0.0483824 -0.143977 -0.986596
0.0483647 -0.143443 -0.986133
0.0484001 -0.144511 -0.987059
0.0464439 -0.145719 -0.974947
0.0464616 -0.146253 -0.97541
0.0474445 -0.145721 -0.975446
0.047411 -0.144724 -0.975517
0.0464104 -0.144722 -0.975018
0.0463947 -0.144259 -0.975552
0.0474465 -0.145792 -0.976443
0.0464636 -0.146324 -0.976407
0.046379 -0.143797 -0.976086
0.0463633 -0.143334 -0.976621
0.0474485 -0.145863 -0.977441
0.0464656 -0.146395 -0.977405
0.0463475 -0.142871 -0.977155
0.0463318 -0.142408 -0.977689
0.0474505 -0.145935 -0.978438
0.0464676 -0.146466 -0.978402
0.0473167 -0.141947 -0.978723
0.0463338 -0.142479 -0.978687
0.0474525 -0.146006 -0.979436
0.0464696 -0.146538 -0.9794
0.0463181 -0.142016 -0.979221
0.0463023 -0.141553 -0.979755
0.0474544 -0.146077 -0.980433
0.0464716 -0.146609 -0.980397
0.0463043 -0.141624 -0.980753
0.0474564 -0.146148 -0.981431
0.0464736 -0.14668 -0.981395
0.0463063 -0.141695 -0.98175
0.0474584 -0.146219 -0.982428
0.0464756 -0.146751 -0.982392
0.0463083 -0.141766 -0.982748
0.0474604 -0.14629 -0.983426
0.0464776 -0.146822 -0.98339
0.0463438 -0.142834 -0.983674
0.046326 -0.1423 -0.983211
0.0473266 -0.142302 -0.98371
0.0474624 -0.146361 -0.984423
0.0464796 -0.146893 -0.984387
0.0473286 -0.142373 -0.984707
0.0463458 -0.142905 -0.984671
0.0474644 -0.146432 -0.98542
0.0464816 -0.146964 -0.985384
0.0463478 -0.142976 -0.985669
0.0464658 -0.146501 -0.985919
0.0464501 -0.146038 -0.986453
0.047433 -0.145506 -0.986489
0.0463832 -0.144044 -0.986595
0.0463655 -0.14351 -0.986132
0.0464344 -0.145575 -0.986987
0.0464009 -0.144578 -0.987058
0.0444447 -0.145786 -0.974946
0.0444624 -0.14632 -0.975409
0.044429 -0.145323 -0.97548
0.0454119 -0.144791 -0.975516
0.0444802 -0.146854 -0.975872
0.0444979 -0.147388 -0.976335
0.0454807 -0.146856 -0.976371
0.0444133 -0.14486 -0.976014
0.0443975 -0.144398 -0.976549
0.0453804 -0.143866 -0.976585
0.0454827 -0.146927 -0.977369
0.0444999 -0.147459 -0.977333
0.0443818 -0.143935 -0.977083
0.0443661 -0.143472 -0.977617
0.0453489 -0.14294 -0.977653
0.0454847 -0.146998 -0.978366
0.0445019 -0.14753 -0.97833
0.0443504 -0.143009 -0.978152
0.0443346 -0.142546 -0.978686
0.0454867 -0.14707 -0.979364
0.0445039 -0.147601 -0.979328
0.0453195 -0.142085 -0.979719
0.0443366 -0.142617 -0.979683
0.0454887 -0.147141 -0.980361
0.0445059 -0.147673 -0.980325
0.0443209 -0.142154 -0.980218
0.0443052 -0.141691 -0.980752
0.0454907 -0.147212 -0.981359
0.0445079 -0.147744 -0.981323
0.0443072 -0.141762 -0.981749
0.0444921 -0.147281 -0.981857
0.0444764 -0.146818 -0.982391
0.0443092 -0.141833 -0.982747
0.0444784 -0.146889 -0.983389
0.0453275 -0.142369 -0.983709
0.0443112 -0.141904 -0.983744
0.0444804 -0.14696 -0.984386
0.0443466 -0.142972 -0.984671
0.0443289 -0.142438 -0.984208
0.0444824 -0.147031 -0.985384
0.0443486 -0.143043 -0.985668
0.0444667 -0.146568 -0.985918
0.0444509 -0.146105 -0.986452
0.044384 -0.144111 -0.986595
0.0443663 -0.143577 -0.986131
0.0444352 -0.145642 -0.986987
0.0444018 -0.144645 -0.987058
0.042479 -0.14685 -0.974874
0.0424967 -0.147384 -0.975337
0.0434796 -0.146852 -0.975373
0.0424455 -0.145853 -0.974945
0.0424298 -0.14539 -0.975479
0.0424987 -0.147455 -0.976335
0.0424141 -0.144927 -0.976014
0.0423984 -0.144465 -0.976548
0.0425007 -0.147526 -0.977332
0.0423826 -0.144002 -0.977082
0.0423669 -0.143539 -0.977617
0.0425184 -0.14806 -0.977795
0.0425362 -0.148594 -0.978258
0.043519 -0.148062 -0.978294
0.0423512 -0.143076 -0.978151
0.0423355 -0.142613 -0.978685
0.0425204 -0.148131 -0.978793
0.0425047 -0.147669 -0.979327
0.0433203 -0.142152 -0.979719
0.0423197 -0.14215 -0.979219
0.042304 -0.141687 -0.979754
0.0425067 -0.14774 -0.980324
0.042306 -0.141758 -0.980751
0.0425087 -0.147811 -0.981322
0.042308 -0.141829 -0.981749
0.0434935 -0.14735 -0.982355
0.0425107 -0.147882 -0.982319
0.04231 -0.1419 -0.982746
0.0434955 -0.147421 -0.983353
0.0425127 -0.147953 -0.983317
0.042312 -0.141971 -0.983744
0.0434975 -0.147492 -0.98435
0.0425147 -0.148024 -0.984314
0.0433303 -0.142507 -0.984706
0.042314 -0.142042 -0.984741
0.0434995 -0.147563 -0.985348
0.0425167 -0.148095 -0.985312
0.0423494 -0.14311 -0.985667
0.0423317 -0.142576 -0.985204
0.0425009 -0.147632 -0.985846
0.0424852 -0.147169 -0.98638
0.0434681 -0.146637 -0.986416
0.0424183 -0.145175 -0.986523
0.0424006 -0.144641 -0.986059
0.0434012 -0.144643 -0.986559
0.0423671 -0.143644 -0.986131
0.0424695 -0.146706 -0.986915
0.042436 -0.145709 -0.986986
0.0404798 -0.146917 -0.974873
0.0404975 -0.147451 -0.975336
0.0404464 -0.14592 -0.974944
0.0404306 -0.145457 -0.975479
0.0405153 -0.147985 -0.9758
0.040533 -0.148519 -0.976263
0.0415159 -0.147987 -0.976299
0.0404149 -0.144994 -0.976013
0.0413821 -0.144 -0.976583
0.0403815 -0.143998 -0.976084
0.0403657 -0.143535 -0.976618
0.0405507 -0.149053 -0.976726
0.0405684 -0.149587 -0.977189
0.0415513 -0.149055 -0.977225
0.0415178 -0.148058 -0.977296
0.0413506 -0.143074 -0.977652
0.04035 -0.143072 -0.977153
0.0403343 -0.142609 -0.977687
0.0415533 -0.149126 -0.978222
0.0405704 -0.149658 -0.978187
0.0413191 -0.142148 -0.97872
0.0403186 -0.142146 -0.978221
0.0403028 -0.141683 -0.978755
0.0415553 -0.149197 -0.97922
0.0405724 -0.149729 -0.979184
0.0415218 -0.1482 -0.979291
0.0403048 -0.141754 -0.979753
0.0415573 -0.149268 -0.980217
0.0405744 -0.1498 -0.980181
0.0415238 -0.148272 -0.980289
0.0412897 -0.141293 -0.980786
0.0402891 -0.141291 -0.980287
0.0402734 -0.140828 -0.980821
0.0405587 -0.149338 -0.980716
0.040543 -0.148875 -0.98125
0.0415258 -0.148343 -0.981286
0.0412917 -0.141364 -0.981784
0.0402754 -0.140899 -0.981819
0.0415278 -0.148414 -0.982283
0.040545 -0.148946 -0.982248
0.0412937 -0.141435 -0.982781
0.0402774 -0.14097 -0.982816
0.0415298 -0.148485 -0.983281
0.0405469 -0.149017 -0.983245
0.0412957 -0.141506 -0.983779
0.0402794 -0.141042 -0.983814
0.0415318 -0.148556 -0.984278
0.0405489 -0.149088 -0.984242
0.0403148 -0.14211 -0.98474
0.0402971 -0.141576 -0.984277
0.0415338 -0.148627 -0.985276
0.0405509 -0.149159 -0.98524
0.0403502 -0.143178 -0.985667
0.0403325 -0.142644 -0.985203
0.0405352 -0.148696 -0.985774
0.0405195 -0.148233 -0.986309
0.0415023 -0.147701 -0.986344
0.0404191 -0.145242 -0.986522
0.0404014 -0.144708 -0.986059
0.040368 -0.143712 -0.98613
0.0405038 -0.14777 -0.986843
0.0404703 -0.146773 -0.986914
0.0404369 -0.145776 -0.986985
0.0385141 -0.147981 -0.974801
0.0385318 -0.148515 -0.975264
0.0395147 -0.147983 -0.9753
0.0384807 -0.146984 -0.974872
0.0384472 -0.145987 -0.974944
0.0394143 -0.144992 -0.975514
0.0384138 -0.14499 -0.975015
0.038398 -0.144528 -0.975549
0.0385495 -0.149049 -0.975728
0.0385673 -0.149583 -0.976191
0.0395501 -0.149051 -0.976227
0.0383823 -0.144065 -0.976083
0.0393494 -0.14307 -0.976653
0.0383489 -0.143068 -0.976154
0.039316 -0.142073 -0.976725
0.0383154 -0.142071 -0.976225
0.0382997 -0.141608 -0.97676
0.0385693 -0.149654 -0.977188
0.039318 -0.142144 -0.977722
0.0382839 -0.141145 -0.977294
0.0392845 -0.141147 -0.977793
0.0382682 -0.140682 -0.977828
0.038587 -0.150188 -0.977651
0.0386047 -0.150722 -0.978115
0.0395876 -0.15019 -0.978151
0.0392865 -0.141218 -0.978791
0.0382525 -0.140219 -0.978363
0.0392531 -0.140221 -0.978862
0.0382368 -0.139756 -0.978897
0.0395896 -0.150261 -0.979148
0.0386067 -0.150793 -0.979112
0.0392885 -0.141289 -0.979788
0.0392551 -0.140292 -0.979859
0.038221 -0.139293 -0.979431
0.0392216 -0.139295 -0.97993
0.0382053 -0.13883 -0.979965
0.038591 -0.15033 -0.979646
0.0385752 -0.149867 -0.980181
0.0392571 -0.140363 -0.980857
0.0392236 -0.139366 -0.980928
0.0382073 -0.138901 -0.980963
0.0395601 -0.149407 -0.981214
0.0385772 -0.149939 -0.981178
0.0392591 -0.140434 -0.981854
0.0392256 -0.139438 -0.981925
0.0382093 -0.138973 -0.98196
0.0395621 -0.149478 -0.982212
0.0385792 -0.15001 -0.982176
0.0392611 -0.140505 -0.982852
0.0392276 -0.139509 -0.982923
0.0382113 -0.139044 -0.982958
0.0395641 -0.149549 -0.983209
0.0385812 -0.150081 -0.983173
0.039263 -0.140577 -0.983849
0.038229 -0.139578 -0.983421
0.0382467 -0.140112 -0.983884
0.0395661 -0.14962 -0.984207
0.0385832 -0.150152 -0.984171
0.0392985 -0.141645 -0.984775
0.0382822 -0.14118 -0.984811
0.0382645 -0.140646 -0.984347
0.0395681 -0.149691 -0.985204
0.0385852 -0.150223 -0.985168
0.0393339 -0.142713 -0.985702
0.0383176 -0.142248 -0.985737
0.0382999 -0.141714 -0.985274
0.0395701 -0.149762 -0.986201
0.0385872 -0.150294 -0.986166
0.0395366 -0.148765 -0.986273
0.0394028 -0.144777 -0.986557
0.0383865 -0.144313 -0.986592
0.0383688 -0.143779 -0.986129
0.0383353 -0.142782 -0.9862
0.0385715 -0.149831 -0.9867
0.038538 -0.148834 -0.986771
0.0385046 -0.147837 -0.986842
0.0384711 -0.14684 -0.986913
0.0384377 -0.145843 -0.986984
0.0384042 -0.144847 -0.987055
0.0396478 -0.181945 -0.987417
0.0396656 -0.182479 -0.98788
0.0406484 -0.181947 -0.987916
0.040615 -0.18095 -0.987987
0.0396144 -0.180948 -0.987488
0.0405815 -0.179954 -0.988058
0.0395809 -0.179952 -0.987559
0.0405481 -0.178957 -0.988129
0.0395475 -0.178955 -0.98763
0.0405146 -0.17796 -0.9882
0.039514 -0.177958 -0.987701
0.0404812 -0.176963 -0.988271
0.0394806 -0.176961 -0.987772
0.0404477 -0.175966 -0.988342
0.0394471 -0.175964 -0.987843
0.0404143 -0.174969 -0.988414
0.0394137 -0.174967 -0.987914
0.039398 -0.174504 -0.988449
0.0396498 -0.182016 -0.988414
0.0396164 -0.18102 -0.988485
0.0395829 -0.180023 -0.988556
0.0395495 -0.179026 -0.988627
0.0395337 -0.178563 -0.989162
0.0405166 -0.178031 -0.989198
0.0404832 -0.177034 -0.989269
0.0404497 -0.176037 -0.98934
0.0404163 -0.17504 -0.989411
0.0393822 -0.174041 -0.988983
0.0403828 -0.174043 -0.989482
0.0403494 -0.173046 -0.989553
0.0393488 -0.173044 -0.989054
0.0403159 -0.172049 -0.989624
0.0393153 -0.172047 -0.989125
0.0392996 -0.171584 -0.98966
0.0405186 -0.178102 -0.990195
0.0395357 -0.178634 -0.990159
0.0404852 -0.177105 -0.990266
0.0404517 -0.176108 -0.990337
0.0404183 -0.175111 -0.990408
0.0403848 -0.174114 -0.99048
0.0403514 -0.173117 -0.990551
0.0403179 -0.17212 -0.990622
0.0392839 -0.171122 -0.990194
0.0402845 -0.171124 -0.990693
0.0392682 -0.170659 -0.990728
0.03952 -0.178171 -0.990693
0.0394866 -0.177174 -0.990765
0.0394708 -0.176711 -0.991299
0.0404537 -0.176179 -0.991335
0.0404203 -0.175182 -0.991406
0.0403868 -0.174185 -0.991477
0.0403534 -0.173188 -0.991548
0.0403199 -0.172192 -0.991619
0.0402865 -0.171195 -0.99169
0.0392524 -0.170196 -0.991262
0.040253 -0.170198 -0.991762
0.0392367 -0.169733 -0.991797
0.0394551 -0.176248 -0.991833
0.0394217 -0.175251 -0.991904
0.0393882 -0.174254 -0.991975
0.0393548 -0.173258 -0.992047
0.0393213 -0.172261 -0.992118
0.0392879 -0.171264 -0.992189
0.0392544 -0.170267 -0.99226
0.0372074 -0.168628 -0.96832
0.0372251 -0.169162 -0.968783
0.038208 -0.16863 -0.968819
0.0371917 -0.168165 -0.968854
0.03821 -0.168701 -0.969816
0.0372271 -0.169233 -0.96978
0.0371937 -0.168236 -0.969852
0.0372114 -0.16877 -0.970315
0.0370441 -0.163785 -0.97067
0.0370619 -0.164319 -0.971134
0.0380447 -0.163787 -0.971169
0.0370284 -0.163323 -0.971205
0.0370461 -0.163857 -0.971668
0.036143 -0.13694 -0.973588
0.0361607 -0.137474 -0.974051
0.0371436 -0.136942 -0.974087
0.0371101 -0.135945 -0.974158
0.0361096 -0.135943 -0.973659
0.0370767 -0.134948 -0.974229
0.0360761 -0.134946 -0.97373
0.0370432 -0.133951 -0.9743
0.0360427 -0.133949 -0.973801
0.0360269 -0.133486 -0.974335
0.0364126 -0.144986 -0.974016
0.0364303 -0.14552 -0.97448
0.0374132 -0.144988 -0.974516
0.0373797 -0.143991 -0.974587
0.0363791 -0.143989 -0.974087
0.0373463 -0.142995 -0.974658
0.0363457 -0.142993 -0.974159
0.0373128 -0.141998 -0.974729
0.0363122 -0.141996 -0.97423
0.0372794 -0.141001 -0.9748
0.0362788 -0.140999 -0.974301
0.0372459 -0.140004 -0.974871
0.0362453 -0.140002 -0.974372
0.0372125 -0.139007 -0.974942
0.0362119 -0.139005 -0.974443
0.037179 -0.13801 -0.975013
0.0361784 -0.138008 -0.974514
0.0371456 -0.137013 -0.975084
0.0371121 -0.136016 -0.975156
0.0370787 -0.135019 -0.975227
0.0370452 -0.134022 -0.975298
0.0360112 -0.133023 -0.97487
0.0370118 -0.133025 -0.975369
0.0359955 -0.132561 -0.975404
0.0365818 -0.150042 -0.974658
0.0365995 -0.150576 -0.975121
0.0375824 -0.150044 -0.975157
0.037549 -0.149047 -0.975229
0.0365484 -0.149045 -0.974729
0.0365149 -0.148048 -0.974801
0.0364815 -0.147051 -0.974872
0.036448 -0.146054 -0.974943
0.0373817 -0.144063 -0.975584
0.0373483 -0.143066 -0.975655
0.0373148 -0.142069 -0.975726
0.0372814 -0.141072 -0.975797
0.0372479 -0.140075 -0.975869
0.0372145 -0.139078 -0.97594
0.037181 -0.138081 -0.976011
0.0371476 -0.137084 -0.976082
0.0371141 -0.136087 -0.976153
0.0370807 -0.13509 -0.976224
0.0370472 -0.134093 -0.976295
0.0370138 -0.133097 -0.976366
0.0359975 -0.132632 -0.976401
0.0375844 -0.150115 -0.976155
0.0366015 -0.150647 -0.976119
0.0372834 -0.141143 -0.976795
0.0372499 -0.140146 -0.976866
0.0372165 -0.139149 -0.976937
0.037183 -0.138152 -0.977008
0.0371496 -0.137155 -0.977079
0.0371161 -0.136158 -0.97715
0.0370827 -0.135161 -0.977222
0.0370492 -0.134165 -0.977293
0.0370158 -0.133168 -0.977364
0.0359817 -0.132169 -0.976936
0.0369823 -0.132171 -0.977435
0.035966 -0.131706 -0.97747
0.0366193 -0.151181 -0.976582
0.036637 -0.151715 -0.977045
0.0376198 -0.151183 -0.977081
0.0375864 -0.150186 -0.977152
0.0372519 -0.140217 -0.977863
0.0372185 -0.13922 -0.977935
0.037185 -0.138223 -0.978006
0.0371516 -0.137226 -0.978077
0.0371181 -0.136229 -0.978148
0.0370847 -0.135233 -0.978219
0.0370512 -0.134236 -0.97829
0.0370178 -0.133239 -0.978361
0.0369843 -0.132242 -0.978432
0.035968 -0.131777 -0.978468
0.0376218 -0.151254 -0.978079
0.036639 -0.151786 -0.978043
0.0372205 -0.139291 -0.978932
0.037187 -0.138294 -0.979003
0.0371536 -0.137297 -0.979074
0.0371201 -0.136301 -0.979145
0.0370867 -0.135304 -0.979216
0.0370532 -0.134307 -0.979288
0.0370198 -0.13331 -0.979359
0.0369863 -0.132313 -0.97943
0.03597 -0.131848 -0.979465
0.0376238 -0.151325 -0.979076
0.036641 -0.151857 -0.97904
0.037189 -0.138365 -0.980001
0.0371555 -0.137369 -0.980072
0.0371221 -0.136372 -0.980143
0.0370887 -0.135375 -0.980214
0.0370552 -0.134378 -0.980285
0.0370218 -0.133381 -0.980356
0.0369883 -0.132384 -0.980427
0.035972 -0.131919 -0.980462
0.0376258 -0.151396 -0.980074
0.036643 -0.151928 -0.980038
0.0375924 -0.150399 -0.980145
0.037191 -0.138437 -0.980998
0.0371575 -0.13744 -0.981069
0.0371241 -0.136443 -0.98114
0.0370906 -0.135446 -0.981211
0.0370572 -0.134449 -0.981283
0.0370237 -0.133452 -0.981354
0.0359897 -0.132453 -0.980926
0.0360074 -0.132987 -0.981389
0.0366272 -0.151465 -0.980572
0.0366115 -0.151002 -0.981106
0.0375944 -0.150471 -0.981142
0.037193 -0.138508 -0.981996
0.0371595 -0.137511 -0.982067
0.0371261 -0.136514 -0.982138
0.0370926 -0.135517 -0.982209
0.0360586 -0.134518 -0.981781
0.0360763 -0.135052 -0.982244
0.0360252 -0.133521 -0.981852
0.0375964 -0.150542 -0.98214
0.0366135 -0.151074 -0.982104
0.037195 -0.138579 -0.982993
0.0371615 -0.137582 -0.983064
0.0361275 -0.136583 -0.982636
0.0361452 -0.137117 -0.983099
0.036094 -0.135586 -0.982707
0.0375984 -0.150613 -0.983137
0.0366155 -0.151145 -0.983101
0.0372304 -0.139647 -0.983919
0.037197 -0.13865 -0.98399
0.0361629 -0.137651 -0.983562
0.0361807 -0.138185 -0.984026
0.0376004 -0.150684 -0.984135
0.0366175 -0.151216 -0.984099
0.0372659 -0.140715 -0.984846
0.0372324 -0.139718 -0.984917
0.0361984 -0.138719 -0.984489
0.0362161 -0.139253 -0.984952
0.0376024 -0.150755 -0.985132
0.0366195 -0.151287 -0.985096
0.0373013 -0.141783 -0.985772
0.036285 -0.141318 -0.985807
0.0362673 -0.140784 -0.985344
0.0362338 -0.139787 -0.985415
0.0376043 -0.150826 -0.98613
0.0366215 -0.151358 -0.986094
0.0373702 -0.143848 -0.986627
0.0363539 -0.143383 -0.986663
0.0363362 -0.142849 -0.986199
0.0363027 -0.141852 -0.98627
0.0366058 -0.150895 -0.986628
0.03659 -0.150432 -0.987162
0.0375729 -0.1499 -0.987198
0.0375394 -0.148903 -0.987269
0.037506 -0.147906 -0.98734
0.0374725 -0.146909 -0.987411
0.0364562 -0.146444 -0.987447
0.0364385 -0.14591 -0.986983
0.0364051 -0.144914 -0.987055
0.0363716 -0.143917 -0.987126
0.0376447 -0.18187 -0.985421
0.0376624 -0.182404 -0.985884
0.0386453 -0.181872 -0.98592
0.0386118 -0.180875 -0.985991
0.0376112 -0.180873 -0.985492
0.0385784 -0.179878 -0.986062
0.0375778 -0.179876 -0.985563
0.0385449 -0.178882 -0.986133
0.0375443 -0.178879 -0.985634
0.0385115 -0.177885 -0.986204
0.0375109 -0.177883 -0.985705
0.038478 -0.176888 -0.986276
0.0374774 -0.176886 -0.985776
0.0384446 -0.175891 -0.986347
0.037444 -0.175889 -0.985848
0.0384111 -0.174894 -0.986418
0.0374105 -0.174892 -0.985919
0.0383777 -0.173897 -0.986489
0.0373771 -0.173895 -0.98599
0.0383442 -0.1729 -0.98656
0.0373436 -0.172898 -0.986061
0.0373279 -0.172435 -0.986595
0.0365743 -0.149969 -0.987696
0.0365409 -0.148972 -0.987768
0.0365074 -0.147975 -0.987839
0.036474 -0.146978 -0.98791
0.0377136 -0.183935 -0.986276
0.0377313 -0.184469 -0.986739
0.0387141 -0.183937 -0.986775
0.0386807 -0.18294 -0.986846
0.0376801 -0.182938 -0.986347
0.0386472 -0.181943 -0.986918
0.0386138 -0.180946 -0.986989
0.0385803 -0.179949 -0.98706
0.0385469 -0.178953 -0.987131
0.0385134 -0.177956 -0.987202
0.03848 -0.176959 -0.987273
0.0384466 -0.175962 -0.987344
0.0384131 -0.174965 -0.987415
0.0383797 -0.173968 -0.987486
0.0383462 -0.172971 -0.987558
0.0373122 -0.171972 -0.98713
0.0383128 -0.171974 -0.987629
0.0382793 -0.170977 -0.9877
0.0372787 -0.170975 -0.987201
0.037263 -0.170512 -0.987735
0.0387161 -0.184008 -0.987773
0.0377333 -0.18454 -0.987737
0.0386827 -0.183011 -0.987844
0.0383816 -0.174039 -0.988484
0.0383482 -0.173042 -0.988555
0.0383147 -0.172045 -0.988626
0.0382813 -0.171048 -0.988697
0.0372473 -0.170049 -0.988269
0.0382479 -0.170052 -0.988768
0.0382144 -0.169055 -0.988839
0.0372138 -0.169053 -0.98834
0.0371981 -0.16859 -0.988875
0.0387181 -0.184079 -0.98877
0.0377353 -0.184611 -0.988734
0.0386847 -0.183082 -0.988841
0.0386512 -0.182085 -0.988912
0.0386178 -0.181089 -0.988984
0.0385843 -0.180092 -0.989055
0.0385509 -0.179095 -0.989126
0.0382833 -0.17112 -0.989695
0.0382498 -0.170123 -0.989766
0.0382164 -0.169126 -0.989837
0.0371824 -0.168127 -0.989409
0.0381829 -0.168129 -0.989908
0.0371666 -0.167664 -0.989943
0.0377195 -0.184148 -0.989269
0.0376861 -0.183151 -0.98934
0.0376704 -0.182689 -0.989874
0.0386532 -0.182157 -0.98991
0.0386198 -0.18116 -0.989981
0.0385863 -0.180163 -0.990052
0.0385529 -0.179166 -0.990123
0.0382518 -0.170194 -0.990763
0.0382184 -0.169197 -0.990834
0.0381849 -0.1682 -0.990905
0.0371686 -0.167735 -0.990941
0.0376546 -0.182226 -0.990408
0.0376212 -0.181229 -0.990479
0.0376055 -0.180766 -0.991014
0.0385883 -0.180234 -0.99105
0.0385549 -0.179237 -0.991121
0.0385214 -0.17824 -0.991192
0.038488 -0.177243 -0.991263
0.0382204 -0.169268 -0.991832
0.0381869 -0.168271 -0.991903
0.0371529 -0.167272 -0.991475
0.0381535 -0.167274 -0.991974
0.0371372 -0.166809 -0.992009
0.0375897 -0.180303 -0.991548
0.0375563 -0.179306 -0.991619
0.0375228 -0.178309 -0.99169
0.0374894 -0.177312 -0.991761
0.0374737 -0.176849 -0.992296
0.0384565 -0.176317 -0.992332
0.0384231 -0.17532 -0.992403
0.0383896 -0.174323 -0.992474
0.0383562 -0.173327 -0.992545
0.0383227 -0.17233 -0.992616
0.0382893 -0.171333 -0.992687
0.0382558 -0.170336 -0.992758
0.0382224 -0.169339 -0.992829
0.0381889 -0.168342 -0.9929
0.0381555 -0.167345 -0.992972
0.0371392 -0.16688 -0.993007
0.0374579 -0.176386 -0.99283
0.0374245 -0.175389 -0.992901
0.037391 -0.174393 -0.992972
0.0373576 -0.173396 -0.993043
0.0373241 -0.172399 -0.993114
0.0372907 -0.171402 -0.993185
0.0372572 -0.170405 -0.993257
0.0372238 -0.169408 -0.993328
0.0371903 -0.168411 -0.993399
0.0371569 -0.167414 -0.99347
0.0354049 -0.174534 -0.965897
0.0354226 -0.175068 -0.966361
0.0364055 -0.174536 -0.966397
0.0363721 -0.173539 -0.966468
0.0353715 -0.173537 -0.965969
0.0363386 -0.172542 -0.966539
0.035338 -0.17254 -0.96604
0.0353223 -0.172077 -0.966574
0.0354404 -0.175602 -0.966824
0.0354581 -0.176136 -0.967287
0.0364409 -0.175604 -0.967323
0.0364075 -0.174607 -0.967394
0.036374 -0.17361 -0.967465
0.0363406 -0.172613 -0.967536
0.0353066 -0.171614 -0.967108
0.0363071 -0.171616 -0.967607
0.0362737 -0.17062 -0.967678
0.0352731 -0.170618 -0.967179
0.0362403 -0.169623 -0.96775
0.0352397 -0.169621 -0.96725
0.0362068 -0.168626 -0.967821
0.0352062 -0.168624 -0.967322
0.0361734 -0.167629 -0.967892
0.0351728 -0.167627 -0.967393
0.0361399 -0.166632 -0.967963
0.0351393 -0.16663 -0.967464
0.0361065 -0.165635 -0.968034
0.0351059 -0.165633 -0.967535
0.0350901 -0.16517 -0.968069
0.0364429 -0.175675 -0.96832
0.0354601 -0.176207 -0.968284
0.0364095 -0.174678 -0.968392
0.036376 -0.173681 -0.968463
0.0363426 -0.172684 -0.968534
0.0363091 -0.171688 -0.968605
0.0362757 -0.170691 -0.968676
0.0362422 -0.169694 -0.968747
0.0361753 -0.1677 -0.968889
0.0361419 -0.166703 -0.96896
0.0361084 -0.165706 -0.969032
0.0350744 -0.164707 -0.968603
0.036075 -0.164709 -0.969103
0.0360416 -0.163712 -0.969174
0.035041 -0.16371 -0.968675
0.0360081 -0.162715 -0.969245
0.0350075 -0.162713 -0.968746
0.0359747 -0.161718 -0.969316
0.0349741 -0.161716 -0.968817
0.0349583 -0.161254 -0.969351
0.0341378 -0.136794 -0.970595
0.0341556 -0.137328 -0.971058
0.0351384 -0.136796 -0.971094
0.0341221 -0.136331 -0.971129
0.0354444 -0.175744 -0.968819
0.0354286 -0.175281 -0.969353
0.0364115 -0.174749 -0.969389
0.036378 -0.173752 -0.96946
0.0363446 -0.172756 -0.969531
0.0363111 -0.171759 -0.969602
0.0362777 -0.170762 -0.969673
0.0362442 -0.169765 -0.969745
0.0361773 -0.167771 -0.969887
0.0361439 -0.166774 -0.969958
0.0361104 -0.165777 -0.970029
0.036077 -0.16478 -0.9701
0.0360435 -0.163783 -0.970171
0.0360101 -0.162786 -0.970242
0.0359766 -0.16179 -0.970313
0.0349426 -0.160791 -0.969885
0.0359432 -0.160793 -0.970385
0.0359097 -0.159796 -0.970456
0.0349092 -0.159794 -0.969957
0.0348934 -0.159331 -0.970491
0.0342402 -0.139856 -0.971379
0.0342579 -0.14039 -0.971842
0.0352408 -0.139858 -0.971878
0.0352073 -0.138861 -0.971949
0.0342067 -0.138859 -0.97145
0.0351739 -0.137864 -0.97202
0.0341733 -0.137862 -0.971521
0.0351404 -0.136867 -0.972091
0.0341064 -0.135868 -0.971663
0.035107 -0.13587 -0.972162
0.0350735 -0.134873 -0.972233
0.0340729 -0.134871 -0.971734
0.0350401 -0.133876 -0.972305
0.0340395 -0.133874 -0.971805
0.0340238 -0.133411 -0.97234
0.0354129 -0.174818 -0.969887
0.0353972 -0.174356 -0.970422
0.03638 -0.173824 -0.970458
0.0363466 -0.172827 -0.970529
0.0363131 -0.17183 -0.9706
0.0362797 -0.170833 -0.970671
0.0362462 -0.169836 -0.970742
0.0362128 -0.168839 -0.970813
0.0361793 -0.167842 -0.970884
0.0361459 -0.166845 -0.970955
0.0361124 -0.165848 -0.971026
0.036079 -0.164851 -0.971098
0.0360121 -0.162858 -0.97124
0.0359786 -0.161861 -0.971311
0.0359452 -0.160864 -0.971382
0.0359117 -0.159867 -0.971453
0.0348777 -0.158868 -0.971025
0.0358783 -0.15887 -0.971524
0.0358448 -0.157873 -0.971595
0.0348443 -0.157871 -0.971096
0.0348285 -0.157408 -0.971631
0.0343091 -0.14192 -0.972234
0.0343268 -0.142454 -0.972697
0.0353097 -0.141923 -0.972733
0.0352762 -0.140926 -0.972804
0.0342756 -0.140924 -0.972305
0.0352428 -0.139929 -0.972875
0.0352093 -0.138932 -0.972946
0.0351759 -0.137935 -0.973018
0.0351424 -0.136938 -0.973089
0.035109 -0.135941 -0.97316
0.0350755 -0.134944 -0.973231
0.0350421 -0.133947 -0.973302
0.0340258 -0.133482 -0.973337
0.0353814 -0.173893 -0.970956