<VTKFile type="UnstructuredGrid" version="0.1" byte_order="BigEndian">
  <UnstructuredGrid>
    <Piece NumberOfPoints="12556" NumberOfCells="25108">
      <PointData>
        <DataArray type="Float64" Name="position" NumberOfComponents="3" format="ascii">
0.057135 -0.154085 -0.981441
0.0571553 -0.154626 -0.981896
0.058134 -0.154088 -0.981943
0.058093 -0.153092 -0.982031
0.0570939 -0.153089 -0.981529
0.0570731 -0.152636 -0.982071
0.0571345 -0.154173 -0.982437
0.0570934 -0.153177 -0.982525
0.0571335 -0.154348 -0.98443
0.0571538 -0.154889 -0.984884
0.0581325 -0.154351 -0.984932
0.0580915 -0.153356 -0.98502
0.0570924 -0.153353 -0.984517
0.0570716 -0.152899 -0.985059
0.0571741 -0.155431 -0.985338
0.0571944 -0.155973 -0.985792
0.0581731 -0.155434 -0.98584
0.058132 -0.154439 -0.985928
0.0570919 -0.15344 -0.985514
0.0571122 -0.153982 -0.985968
0.0571736 -0.155519 -0.986334
0.0571325 -0.154523 -0.986422
0.0551374 -0.153991 -0.979441
0.0551577 -0.154533 -0.979895
0.0561364 -0.153994 -0.979943
0.0560954 -0.152999 -0.980031
0.0550963 -0.152996 -0.979528
0.0550755 -0.152542 -0.98007
0.055178 -0.155074 -0.980349
0.0551983 -0.155616 -0.980804
0.056177 -0.155077 -0.980851
0.0561359 -0.154082 -0.980939
0.0560949 -0.153087 -0.981027
0.0550547 -0.152088 -0.980612
0.0560538 -0.152091 -0.981114
0.0550339 -0.151634 -0.981154
0.0561765 -0.155165 -0.981848
0.0551978 -0.155703 -0.9818
0.0560533 -0.152179 -0.982111
0.0550334 -0.151722 -0.98215
0.056176 -0.155253 -0.982844
0.0551973 -0.155791 -0.982796
0.0561349 -0.154257 -0.982931
0.0560939 -0.153262 -0.983019
0.055074 -0.152805 -0.983059
0.0550537 -0.152264 -0.982604
0.0561755 -0.15534 -0.98384
0.0551968 -0.155879 -0.983792
0.0561344 -0.154345 -0.983928
0.0560934 -0.15335 -0.984015
0.0550735 -0.152893 -0.984055
0.056175 -0.155428 -0.984836
0.0551963 -0.155967 -0.984788
0.055073 -0.152981 -0.985051
0.0551958 -0.156054 -0.985784
0.0551136 -0.154064 -0.98596
0.0550933 -0.153522 -0.985505
0.055175 -0.155601 -0.986326
0.0551339 -0.154605 -0.986414
0.0531393 -0.153985 -0.978436
0.0531596 -0.154527 -0.978891
0.0541383 -0.153988 -0.978939
0.0531185 -0.153531 -0.978978
0.0531799 -0.155068 -0.979345
0.0532002 -0.15561 -0.979799
0.0541789 -0.155071 -0.979847
0.0530977 -0.153078 -0.97952
0.0530769 -0.152624 -0.980062
0.0531997 -0.155697 -0.980795
0.0540552 -0.152173 -0.981106
0.0530764 -0.152712 -0.981058
0.0531992 -0.155785 -0.981792
0.0540547 -0.152261 -0.982102
0.0530759 -0.152799 -0.982054
0.0531987 -0.155873 -0.982788
0.0540542 -0.152348 -0.983098
0.0530551 -0.152345 -0.982596
0.0530343 -0.151892 -0.983138
0.0532189 -0.156414 -0.983242
0.0532392 -0.156956 -0.983696
0.054218 -0.156417 -0.983744
0.0540537 -0.152436 -0.984095
0.0530338 -0.151979 -0.984134
0.0542175 -0.156505 -0.98474
0.0532387 -0.157044 -0.984692
0.0540532 -0.152524 -0.985091
0.0530333 -0.152067 -0.98513
0.054217 -0.156593 -0.985736
0.0532382 -0.157131 -0.985688
0.0540937 -0.153607 -0.985999
0.0540527 -0.152612 -0.986087
0.0530328 -0.152155 -0.986127
0.0542165 -0.156681 -0.986733
0.0532377 -0.157219 -0.986685
0.0541754 -0.155685 -0.98682
0.0541343 -0.15469 -0.986908
0.0540932 -0.153695 -0.986995
0.0530531 -0.152696 -0.986581
0.0530734 -0.153238 -0.987035
0.0532169 -0.156765 -0.987226
0.0531962 -0.156312 -0.987768
0.0541749 -0.155773 -0.987816
0.0541338 -0.154778 -0.987904
0.0530937 -0.153779 -0.987489
0.053114 -0.154321 -0.987944
0.0531754 -0.155858 -0.98831
0.0531343 -0.154862 -0.988398
0.0511818 -0.155062 -0.978341
0.0512021 -0.155604 -0.978795
0.0521808 -0.155065 -0.978843
0.0511407 -0.154067 -0.978428
0.0511199 -0.153613 -0.97897
0.0512016 -0.155691 -0.979791
0.0510991 -0.153159 -0.979512
0.0510783 -0.152706 -0.980054
0.0512218 -0.156233 -0.980245
0.0512421 -0.156775 -0.9807
0.0522209 -0.156236 -0.980747
0.0510778 -0.152793 -0.98105
0.0522204 -0.156324 -0.981744
0.0512416 -0.156862 -0.981696
0.0510773 -0.152881 -0.982046
0.0522199 -0.156411 -0.98274
0.0512411 -0.15695 -0.982692
0.0520556 -0.15243 -0.98309
0.0510768 -0.152969 -0.983042
0.0512406 -0.157038 -0.983688
0.0520551 -0.152518 -0.984086
0.0510763 -0.153056 -0.984038
0.0512401 -0.157125 -0.984684
0.0520546 -0.152606 -0.985083
0.0510758 -0.153144 -0.985035
0.0522184 -0.156675 -0.985728
0.0512193 -0.156672 -0.985226
0.0511985 -0.156218 -0.985768
0.0511164 -0.154227 -0.985943
0.0510961 -0.153686 -0.985489
0.0520951 -0.153689 -0.985991
0.0520541 -0.152693 -0.986079
0.0522179 -0.156762 -0.986724
0.0511778 -0.155764 -0.98631
0.0521768 -0.155767 -0.986812
0.0511367 -0.154769 -0.986397
0.0521357 -0.154772 -0.9869
0.0520946 -0.153776 -0.986987
0.0521763 -0.155855 -0.987808
0.0521352 -0.154859 -0.987896
0.0492247 -0.156052 -0.977249
0.049245 -0.156593 -0.977703
0.0502238 -0.156055 -0.977751
0.0501827 -0.155059 -0.977838
0.0491837 -0.155056 -0.977336
0.0491629 -0.154603 -0.977878
0.0502233 -0.156142 -0.978747
0.0492445 -0.156681 -0.978699
0.0491421 -0.154149 -0.97842
0.0491213 -0.153695 -0.978962
0.0492648 -0.157222 -0.979153
0.0492851 -0.157764 -0.979608
0.0502639 -0.157225 -0.979655
0.0502228 -0.15623 -0.979743
0.0500995 -0.153244 -0.980006
0.0491208 -0.153783 -0.979958
0.0502634 -0.157313 -0.980652
0.0492846 -0.157852 -0.980604
0.0491 -0.153329 -0.9805
0.0490792 -0.152875 -0.981042
0.0502629 -0.157401 -0.981648
0.0492841 -0.157939 -0.9816
0.0490787 -0.152963 -0.982038
0.0502624 -0.157489 -0.982644
0.0492836 -0.158027 -0.982596
0.0490782 -0.153051 -0.983034
0.0492628 -0.157573 -0.983138
0.049242 -0.157119 -0.98368
0.0490777 -0.153138 -0.98403
0.0492415 -0.157207 -0.984676
0.0490772 -0.153226 -0.985026
0.0502198 -0.156756 -0.98572
0.049241 -0.157295 -0.985672
0.0491178 -0.154309 -0.985935
0.0490975 -0.153767 -0.985481
0.0492202 -0.156841 -0.986214
0.0491791 -0.155846 -0.986302
0.0491381 -0.154851 -0.986389
0.0472677 -0.157041 -0.976157
0.047288 -0.157582 -0.976611
0.0482668 -0.157044 -0.976659
0.0482257 -0.156049 -0.976746
0.0472266 -0.156046 -0.976244
0.0472058 -0.155592 -0.976786
0.0482663 -0.157132 -0.977655
0.0472875 -0.15767 -0.977607
0.047185 -0.155138 -0.977328
0.0471643 -0.154684 -0.97787
0.0482658 -0.157219 -0.978651
0.047287 -0.157758 -0.978603
0.0471435 -0.154231 -0.978412
0.0471227 -0.153777 -0.978954
0.0472865 -0.157846 -0.979599
0.0471222 -0.153864 -0.97995
0.047286 -0.157933 -0.980595
0.0481004 -0.153414 -0.980994
0.0471217 -0.153952 -0.980946
0.0472855 -0.158021 -0.981592
0.0480999 -0.153501 -0.98199
0.0471212 -0.15404 -0.981942
0.047285 -0.158109 -0.982588
0.0480994 -0.153589 -0.982986
0.0471207 -0.154128 -0.982938
0.0482633 -0.157658 -0.983632
0.0472845 -0.158197 -0.983584
0.0480989 -0.153677 -0.983982
0.0471202 -0.154215 -0.983934
0.0482628 -0.157746 -0.984628
0.047284 -0.158284 -0.98458
0.0480984 -0.153765 -0.984979
0.0471197 -0.154303 -0.984931
0.0482623 -0.157833 -0.985624
0.0472835 -0.158372 -0.985576
0.0471602 -0.155386 -0.985839
0.04714 -0.154845 -0.985385
0.048139 -0.154848 -0.985887
0.0472627 -0.157918 -0.986118
0.0472419 -0.157464 -0.98666
0.0482207 -0.156926 -0.986708
0.0472008 -0.156469 -0.986748
0.0471805 -0.155928 -0.986293
0.0472211 -0.157011 -0.987202
0.0453107 -0.15803 -0.975065
0.045331 -0.158572 -0.975519
0.0463097 -0.158033 -0.975567
0.0462687 -0.157038 -0.975654
0.0452696 -0.157035 -0.975152
0.0452488 -0.156581 -0.975694
0.0463092 -0.158121 -0.976563
0.0453305 -0.15866 -0.976515
0.045228 -0.156127 -0.976236
0.0452072 -0.155674 -0.976778
0.0463087 -0.158209 -0.977559
0.04533 -0.158747 -0.977511
0.0451864 -0.15522 -0.97732
0.0451656 -0.154766 -0.977862
0.0463082 -0.158296 -0.978555
0.0453295 -0.158835 -0.978507
0.0461439 -0.154315 -0.978906
0.0451651 -0.154854 -0.978858
0.0463077 -0.158384 -0.979551
0.045329 -0.158923 -0.979504
0.0451444 -0.1544 -0.9794
0.0451236 -0.153946 -0.979942
0.0463072 -0.158472 -0.980548
0.0453285 -0.15901 -0.9805
0.0451231 -0.154034 -0.980938
0.0463067 -0.15856 -0.981544
0.045328 -0.159098 -0.981496
0.0451226 -0.154122 -0.981934
0.0463062 -0.158647 -0.98254
0.0453275 -0.159186 -0.982492
0.0451221 -0.154209 -0.98293
0.0463057 -0.158735 -0.983536
0.045327 -0.159274 -0.983488
0.0451626 -0.155292 -0.983839
0.0451423 -0.154751 -0.983384
0.0461414 -0.154754 -0.983887
0.0463052 -0.158823 -0.984532
0.0453265 -0.159361 -0.984484
0.0461409 -0.154842 -0.984883
0.0451621 -0.15538 -0.984835
0.0463047 -0.158911 -0.985528
0.045326 -0.159449 -0.98548
0.0451616 -0.155468 -0.985831
0.0453052 -0.158995 -0.986022
0.0452844 -0.158542 -0.986564
0.0462632 -0.158003 -0.986612
0.0452022 -0.156551 -0.986739
0.0451819 -0.156009 -0.986285
0.0452636 -0.158088 -0.987106
0.0452225 -0.157092 -0.987194
0.0433121 -0.158112 -0.975056
0.0433324 -0.158654 -0.975511
0.0432913 -0.157658 -0.975598
0.0442701 -0.15712 -0.975646
0.0433527 -0.159195 -0.975965
0.043373 -0.159737 -0.976419
0.0443517 -0.159198 -0.976467
0.0432705 -0.157205 -0.97614
0.0432497 -0.156751 -0.976682
0.0442285 -0.156212 -0.97673
0.0443512 -0.159286 -0.977463
0.0433725 -0.159824 -0.977415
0.0432289 -0.156297 -0.977224
0.0432081 -0.155843 -0.977766
0.0441869 -0.155305 -0.977814
0.0443507 -0.159374 -0.978459
0.043372 -0.159912 -0.978412
0.0431873 -0.155389 -0.978308
0.0431665 -0.154936 -0.97885
0.0443502 -0.159461 -0.979456
0.0433715 -0.16 -0.979408
0.0441448 -0.154485 -0.979894
0.043166 -0.155023 -0.979846
0.0443497 -0.159549 -0.980452
0.043371 -0.160088 -0.980404
0.0431452 -0.15457 -0.980388
0.0431245 -0.154116 -0.98093
0.0443492 -0.159637 -0.981448
0.0433705 -0.160175 -0.9814
0.043124 -0.154203 -0.981926
0.0433497 -0.159721 -0.981942
0.0433289 -0.159268 -0.982484
0.0431235 -0.154291 -0.982922
0.0433284 -0.159355 -0.98348
0.0441428 -0.154836 -0.983878
0.043123 -0.154379 -0.983918
0.0433279 -0.159443 -0.984476
0.0431635 -0.155462 -0.984827
0.0431432 -0.15492 -0.984372
0.0433274 -0.159531 -0.985472
0.043163 -0.15555 -0.985823
0.0433066 -0.159077 -0.986014
0.0432858 -0.158623 -0.986556
0.0432036 -0.156633 -0.986731
0.0431833 -0.156091 -0.986277
0.043265 -0.15817 -0.987098
0.0432239 -0.157174 -0.987185
0.0413546 -0.159189 -0.974961
0.0413749 -0.159731 -0.975415
0.0423536 -0.159192 -0.975463
0.0413135 -0.158194 -0.975048
0.0412927 -0.15774 -0.97559
0.0413744 -0.159818 -0.976411
0.0412719 -0.157286 -0.976132
0.0412511 -0.156833 -0.976674
0.0413739 -0.159906 -0.977407
0.0412303 -0.156379 -0.977216
0.0412095 -0.155925 -0.977758
0.0413941 -0.160448 -0.977861
0.0414144 -0.160989 -0.978316
0.0423932 -0.160451 -0.978364
0.0411887 -0.155471 -0.9783
0.0411679 -0.155017 -0.978841
0.0413936 -0.160535 -0.978858
0.0413729 -0.160082 -0.979399
0.0421462 -0.154567 -0.979886
0.0411471 -0.154564 -0.979383
0.0411263 -0.15411 -0.979925
0.0413724 -0.160169 -0.980396
0.0411258 -0.154198 -0.980921
0.0413719 -0.160257 -0.981392
0.0411253 -0.154285 -0.981918
0.0423501 -0.159806 -0.982436
0.0413714 -0.160345 -0.982388
0.0411248 -0.154373 -0.982914
0.0423496 -0.159894 -0.983432
0.0413709 -0.160433 -0.983384
0.0411243 -0.154461 -0.98391
0.0423491 -0.159982 -0.984428
0.0413704 -0.16052 -0.98438
0.0421437 -0.155005 -0.984866
0.0411238 -0.154548 -0.984906
0.0423486 -0.160069 -0.985424
0.0413699 -0.160608 -0.985376
0.0411644 -0.155631 -0.985814
0.0411441 -0.15509 -0.98536
0.0413491 -0.160154 -0.985918
0.0413283 -0.1597 -0.98646
0.042307 -0.159162 -0.986508
0.0412461 -0.15771 -0.986635
0.0412258 -0.157168 -0.986181
0.0422249 -0.157171 -0.986683
0.0411847 -0.156173 -0.986269
0.0413075 -0.159247 -0.987002
0.0412664 -0.158251 -0.98709
0.039356 -0.159271 -0.974952
0.0393762 -0.159812 -0.975407
0.0393149 -0.158276 -0.97504
0.0392941 -0.157822 -0.975582
0.0393965 -0.160354 -0.975861
0.0394168 -0.160896 -0.976315
0.0403956 -0.160357 -0.976363
0.0392733 -0.157368 -0.976124
0.0402313 -0.156376 -0.976714
0.0392322 -0.156373 -0.976211
0.0392114 -0.155919 -0.976753
0.0394371 -0.161437 -0.976769
0.0394574 -0.161979 -0.977224
0.0404362 -0.16144 -0.977272
0.0403951 -0.160445 -0.977359
0.0401897 -0.155468 -0.977797
0.0391906 -0.155465 -0.977295
0.0391698 -0.155011 -0.977837
0.0404357 -0.161528 -0.978268
0.0394569 -0.162066 -0.97822
0.0401481 -0.154561 -0.978881
0.039149 -0.154558 -0.978379
0.0391282 -0.154104 -0.978921
0.0404352 -0.161615 -0.979264
0.0394564 -0.162154 -0.979216
0.0403941 -0.16062 -0.979352
0.0391277 -0.154192 -0.979917
0.0404347 -0.161703 -0.98026
0.0394559 -0.162242 -0.980212
0.0403936 -0.160708 -0.980348
0.040106 -0.153741 -0.980961
0.0391069 -0.153738 -0.980459
0.0390862 -0.153284 -0.981001
0.0394351 -0.161788 -0.980754
0.0394143 -0.161334 -0.981296
0.0403931 -0.160796 -0.981344
0.0401055 -0.153828 -0.981957
0.0390857 -0.153372 -0.981997
0.0403926 -0.160883 -0.98234
0.0394138 -0.161422 -0.982292
0.040105 -0.153916 -0.982953
0.0390852 -0.153459 -0.982993
0.0403921 -0.160971 -0.983336
0.0394133 -0.16151 -0.983288
0.0401045 -0.154004 -0.98395
0.0390847 -0.153547 -0.983989
0.0403916 -0.161059 -0.984332
0.0394128 -0.161597 -0.984284
0.0391252 -0.15463 -0.984898
0.0391049 -0.154089 -0.984444
0.0403911 -0.161146 -0.985328
0.0394123 -0.161685 -0.98528
0.0391658 -0.155713 -0.985806
0.0391455 -0.155172 -0.985352
0.0393915 -0.161231 -0.985822
0.0393707 -0.160777 -0.986364
0.0403495 -0.160239 -0.986412
0.0392475 -0.157792 -0.986627
0.0392272 -0.15725 -0.986173
0.0391861 -0.156255 -0.986261
0.03935 -0.160324 -0.986906
0.0393089 -0.159328 -0.986994
0.0392678 -0.158333 -0.987081
0.0373984 -0.160348 -0.974857
0.0374187 -0.16089 -0.975311
0.0383975 -0.160351 -0.975359
0.0373574 -0.159353 -0.974944
0.0373163 -0.158357 -0.975032
0.0382742 -0.157365 -0.975622
0.0372752 -0.157362 -0.975119
0.0372544 -0.156908 -0.975661
0.037439 -0.161431 -0.975765
0.0374593 -0.161973 -0.976219
0.0384381 -0.161434 -0.976267
0.0372336 -0.156455 -0.976203
0.0381916 -0.155462 -0.976793
0.0371925 -0.155459 -0.976291
0.0381505 -0.154467 -0.976881
0.0371514 -0.154464 -0.976379
0.0371306 -0.15401 -0.97692
0.0374588 -0.16206 -0.977216
0.03815 -0.154555 -0.977877
0.0371098 -0.153556 -0.977462
0.0381089 -0.153559 -0.977964
0.037089 -0.153103 -0.978004
0.0374791 -0.162602 -0.97767
0.0374994 -0.163143 -0.978124
0.0384782 -0.162605 -0.978172
0.0381084 -0.153647 -0.978961
0.0370683 -0.152649 -0.978546
0.0380673 -0.152652 -0.979048
0.0370475 -0.152195 -0.979088
0.0384777 -0.162693 -0.979168
0.0374989 -0.163231 -0.97912
0.0381079 -0.153735 -0.979957
0.0380668 -0.152739 -0.980044
0.0370267 -0.151741 -0.97963
0.0380257 -0.151744 -0.980132
0.0370059 -0.151287 -0.980172
0.0374781 -0.162777 -0.979662
0.0374573 -0.162323 -0.980204
0.0380663 -0.152827 -0.981041
0.0380252 -0.151832 -0.981128
0.0370054 -0.151375 -0.981168
0.0384356 -0.161873 -0.981248
0.0374568 -0.162411 -0.9812
0.0380658 -0.152915 -0.982037
0.0380247 -0.15192 -0.982124
0.0370049 -0.151463 -0.982164
0.0384351 -0.16196 -0.982244
0.0374563 -0.162499 -0.982196
0.0380653 -0.153003 -0.983033
0.0380242 -0.152007 -0.98312
0.0370044 -0.151551 -0.98316
0.0384346 -0.162048 -0.98324
0.0374558 -0.162587 -0.983192
0.0380648 -0.15309 -0.984029
0.0370247 -0.152092 -0.983614
0.037045 -0.152634 -0.984069
0.0384341 -0.162136 -0.984236
0.0374553 -0.162674 -0.984189
0.0381054 -0.154173 -0.984937
0.0370855 -0.153717 -0.984977
0.0370653 -0.153175 -0.984523
0.0384336 -0.162224 -0.985233
0.0374548 -0.162762 -0.985185
0.038146 -0.155256 -0.985846
0.0371261 -0.1548 -0.985886
0.0371058 -0.154258 -0.985431
0.0384331 -0.162311 -0.986229
0.0374543 -0.16285 -0.986181
0.038392 -0.161316 -0.986316
0.0382276 -0.157335 -0.986667
0.0372078 -0.156878 -0.986707
0.0371875 -0.156336 -0.986252
0.0371464 -0.155341 -0.98634
0.0374335 -0.162396 -0.986723
0.0373924 -0.161401 -0.98681
0.0373513 -0.160405 -0.986898
0.0373103 -0.15941 -0.986986
0.0372692 -0.158415 -0.987073
0.0372281 -0.15742 -0.987161
0.0387467 -0.194509 -0.986907
0.038767 -0.195051 -0.987361
0.0397458 -0.194512 -0.987409
0.0397047 -0.193517 -0.987497
0.0387056 -0.193514 -0.986995
0.0396636 -0.192521 -0.987584
0.0386646 -0.192518 -0.987082
0.0396225 -0.191526 -0.987672
0.0386235 -0.191523 -0.98717
0.0395814 -0.190531 -0.98776
0.0385824 -0.190528 -0.987257
0.0395404 -0.189535 -0.987847
0.0385413 -0.189532 -0.987345
0.0394993 -0.18854 -0.987935
0.0385002 -0.188537 -0.987433
0.0394582 -0.187545 -0.988023
0.0384591 -0.187542 -0.98752
0.0384383 -0.187088 -0.988062
0.0387462 -0.194597 -0.987903
0.0387051 -0.193601 -0.987991
0.0386641 -0.192606 -0.988078
0.038623 -0.191611 -0.988166
0.0386022 -0.191157 -0.988708
0.0395809 -0.190618 -0.988756
0.0395399 -0.189623 -0.988843
0.0394988 -0.188628 -0.988931
0.0394577 -0.187633 -0.989019
0.0384176 -0.186634 -0.988604
0.0394166 -0.186637 -0.989106
0.0393755 -0.185642 -0.989194
0.0383765 -0.185639 -0.988692
0.0393344 -0.184647 -0.989282
0.0383354 -0.184644 -0.988779
0.0383146 -0.18419 -0.989321
0.0395804 -0.190706 -0.989752
0.0386017 -0.191245 -0.989704
0.0395394 -0.189711 -0.98984
0.0394983 -0.188716 -0.989927
0.0394572 -0.18772 -0.990015
0.0394161 -0.186725 -0.990102
0.039375 -0.18573 -0.99019
0.0393339 -0.184734 -0.990278
0.0382938 -0.183736 -0.989863
0.0392929 -0.183739 -0.990365
0.038273 -0.183282 -0.990405
0.0385809 -0.190791 -0.990246
0.0385398 -0.189796 -0.990334
0.038519 -0.189342 -0.990875
0.0394978 -0.188803 -0.990923
0.0394567 -0.187808 -0.991011
0.0394156 -0.186813 -0.991099
0.0393745 -0.185817 -0.991186
0.0393334 -0.184822 -0.991274
0.0392924 -0.183827 -0.991362
0.0382522 -0.182829 -0.990947
0.0392513 -0.182831 -0.991449
0.0382314 -0.182375 -0.991489
0.0384982 -0.188888 -0.991417
0.0384571 -0.187893 -0.991505
0.0384161 -0.186897 -0.991593
0.038375 -0.185902 -0.99168
0.0383339 -0.184907 -0.991768
0.0382928 -0.183912 -0.991855
0.0382517 -0.182916 -0.991943
0.0362651 -0.180893 -0.968027
0.0362854 -0.181434 -0.968482
0.0372642 -0.180896 -0.96853
0.0362443 -0.180439 -0.968569
0.0372637 -0.180983 -0.969526
0.0362849 -0.181522 -0.969478
0.0362438 -0.180527 -0.969565
0.0362641 -0.181068 -0.97002
0.0360587 -0.176092 -0.970458
0.036079 -0.176633 -0.970912
0.0370577 -0.176095 -0.97096
0.0360379 -0.175638 -0.971
0.0360582 -0.176179 -0.971454
0.0349489 -0.149306 -0.97382
0.0349692 -0.149848 -0.974274
0.0359479 -0.149309 -0.974322
0.0359069 -0.148314 -0.97441
0.0349078 -0.148311 -0.973908
0.0358658 -0.147318 -0.974497
0.0348667 -0.147315 -0.973995
0.0358247 -0.146323 -0.974585
0.0348256 -0.14632 -0.974083
0.0348048 -0.145866 -0.974625
0.0352771 -0.157356 -0.974115
0.0352974 -0.157898 -0.974569
0.0362761 -0.157359 -0.974617
0.036235 -0.156364 -0.974705
0.035236 -0.156361 -0.974203
0.036194 -0.155369 -0.974793
0.0351949 -0.155366 -0.97429
0.0361529 -0.154373 -0.97488
0.0351538 -0.15437 -0.974378
0.0361118 -0.153378 -0.974968
0.0351127 -0.153375 -0.974466
0.0360707 -0.152383 -0.975055
0.0350716 -0.15238 -0.974553
0.0360296 -0.151387 -0.975143
0.0350306 -0.151384 -0.974641
0.0359885 -0.150392 -0.975231
0.0349895 -0.150389 -0.974729
0.0359474 -0.149397 -0.975318
0.0359064 -0.148401 -0.975406
0.0358653 -0.147406 -0.975494
0.0358242 -0.146411 -0.975581
0.0347841 -0.145413 -0.975167
0.0357831 -0.145415 -0.975669
0.0347633 -0.144959 -0.975709
0.035482 -0.16242 -0.974673
0.0355023 -0.162962 -0.975127
0.0364811 -0.162423 -0.975175
0.03644 -0.161428 -0.975263
0.0354409 -0.161425 -0.974761
0.0353998 -0.16043 -0.974848
0.0353587 -0.159435 -0.974936
0.0353177 -0.158439 -0.975024
0.0362345 -0.156452 -0.975701
0.0361935 -0.155456 -0.975789
0.0361524 -0.154461 -0.975876
0.0361113 -0.153466 -0.975964
0.0360702 -0.15247 -0.976052
0.0360291 -0.151475 -0.976139
0.035988 -0.15048 -0.976227
0.0359469 -0.149484 -0.976314
0.0359059 -0.148489 -0.976402
0.0358648 -0.147494 -0.97649
0.0358237 -0.146499 -0.976577
0.0357826 -0.145503 -0.976665
0.0347628 -0.145046 -0.976705
0.0364806 -0.162511 -0.976171
0.0355018 -0.16305 -0.976124
0.0361108 -0.153553 -0.97696
0.0360697 -0.152558 -0.977048
0.0360286 -0.151563 -0.977135
0.0359875 -0.150567 -0.977223
0.0359464 -0.149572 -0.977311
0.0359054 -0.148577 -0.977398
0.0358643 -0.147582 -0.977486
0.0358232 -0.146586 -0.977574
0.0357821 -0.145591 -0.977661
0.034742 -0.144593 -0.977247
0.035741 -0.144596 -0.977749
0.0347212 -0.144139 -0.977788
0.0355221 -0.163591 -0.976578
0.0355424 -0.164133 -0.977032
0.0365211 -0.163594 -0.97708
0.0364801 -0.162599 -0.977168
0.0360692 -0.152646 -0.978044
0.0360281 -0.151651 -0.978132
0.035987 -0.150655 -0.978219
0.0359459 -0.14966 -0.978307
0.0359049 -0.148665 -0.978394
0.0358638 -0.147669 -0.978482
0.0358227 -0.146674 -0.97857
0.0357816 -0.145679 -0.978657
0.0357405 -0.144683 -0.978745
0.0347207 -0.144227 -0.978785
0.0365206 -0.163682 -0.978076
0.0355419 -0.16422 -0.978028
0.0360276 -0.151738 -0.979128
0.0359865 -0.150743 -0.979215
0.0359454 -0.149748 -0.979303
0.0359044 -0.148752 -0.979391
0.0358633 -0.147757 -0.979478
0.0358222 -0.146762 -0.979566
0.0357811 -0.145766 -0.979653
0.03574 -0.144771 -0.979741
0.0347202 -0.144314 -0.979781
0.0365201 -0.16377 -0.979072
0.0355414 -0.164308 -0.979024
0.035986 -0.150831 -0.980211
0.0359449 -0.149835 -0.980299
0.0359039 -0.14884 -0.980387
0.0358628 -0.147845 -0.980474
0.0358217 -0.146849 -0.980562
0.0357806 -0.145854 -0.98065
0.0357395 -0.144859 -0.980737
0.0347197 -0.144402 -0.980777
0.0365196 -0.163857 -0.980068
0.0355409 -0.164396 -0.98002
0.0364785 -0.162862 -0.980156
0.0359855 -0.150918 -0.981208
0.0359444 -0.149923 -0.981295
0.0359034 -0.148928 -0.981383
0.0358623 -0.147932 -0.98147
0.0358212 -0.146937 -0.981558
0.0357801 -0.145942 -0.981646
0.03474 -0.144944 -0.981231
0.0347603 -0.145485 -0.981685
0.0355201 -0.163942 -0.980562
0.0354993 -0.163488 -0.981104
0.036478 -0.16295 -0.981152
0.035985 -0.151006 -0.982204
0.0359439 -0.150011 -0.982291
0.0359029 -0.149015 -0.982379
0.0358618 -0.14802 -0.982467
0.0348216 -0.147022 -0.982052
0.0348419 -0.147563 -0.982506
0.0347806 -0.146027 -0.98214
0.0364775 -0.163037 -0.982148
0.0354988 -0.163576 -0.9821
0.0359845 -0.151094 -0.9832
0.0359434 -0.150099 -0.983288
0.0349033 -0.1491 -0.982873
0.0349236 -0.149642 -0.983327
0.0348622 -0.148105 -0.982961
0.036477 -0.163125 -0.983144
0.0354983 -0.163664 -0.983097
0.0360251 -0.152177 -0.984108
0.035984 -0.151182 -0.984196
0.0349439 -0.150183 -0.983781
0.0349642 -0.150725 -0.984236
0.0364765 -0.163213 -0.984141
0.0354978 -0.163751 -0.984093
0.0360657 -0.15326 -0.985017
0.0360246 -0.152265 -0.985105
0.0349845 -0.151266 -0.98469
0.0350048 -0.151808 -0.985144
0.036476 -0.163301 -0.985137
0.0354973 -0.163839 -0.985089
0.0361063 -0.154343 -0.985925
0.0350864 -0.153886 -0.985965
0.0350661 -0.153345 -0.985511
0.0350251 -0.152349 -0.985598
0.0364755 -0.163388 -0.986133
0.0354968 -0.163927 -0.986085
0.036188 -0.156421 -0.986746
0.0351681 -0.155964 -0.986786
0.0351478 -0.155423 -0.986332
0.0351067 -0.154428 -0.986419
0.035476 -0.163473 -0.986627
0.0354552 -0.163019 -0.987169
0.036434 -0.162481 -0.987217
0.0363929 -0.161486 -0.987304
0.0363518 -0.16049 -0.987392
0.0363107 -0.159495 -0.98748
0.0352909 -0.159038 -0.987519
0.0352706 -0.158497 -0.987065
0.0352295 -0.157501 -0.987153
0.0351884 -0.156506 -0.98724
0.0367491 -0.194415 -0.984906
0.0367694 -0.194957 -0.985361
0.0377482 -0.194418 -0.985409
0.0377071 -0.193423 -0.985496
0.036708 -0.19342 -0.984994
0.037666 -0.192428 -0.985584
0.036667 -0.192425 -0.985082
0.0376249 -0.191432 -0.985672
0.0366259 -0.191429 -0.985169
0.0375838 -0.190437 -0.985759
0.0365848 -0.190434 -0.985257
0.0375428 -0.189442 -0.985847
0.0365437 -0.189439 -0.985345
0.0375017 -0.188446 -0.985934
0.0365026 -0.188444 -0.985432
0.0374606 -0.187451 -0.986022
0.0364615 -0.187448 -0.98552
0.0374195 -0.186456 -0.98611
0.0364204 -0.186453 -0.985608
0.0373784 -0.185461 -0.986197
0.0363794 -0.185458 -0.985695
0.0363586 -0.185004 -0.986237
0.0354344 -0.162566 -0.987711
0.0353933 -0.16157 -0.987798
0.0353522 -0.160575 -0.987886
0.0353112 -0.15958 -0.987974
0.0368308 -0.196494 -0.985727
0.0368511 -0.197035 -0.986182
0.0378298 -0.196497 -0.98623
0.0377888 -0.195501 -0.986317
0.0367897 -0.195498 -0.985815
0.0377477 -0.194506 -0.986405
0.0377066 -0.193511 -0.986492
0.0376655 -0.192515 -0.98658
0.0376244 -0.19152 -0.986668
0.0375833 -0.190525 -0.986755
0.0375423 -0.18953 -0.986843
0.0375012 -0.188534 -0.986931
0.0374601 -0.187539 -0.987018
0.037419 -0.186544 -0.987106
0.0373779 -0.185548 -0.987193
0.0363378 -0.18455 -0.986779
0.0373368 -0.184553 -0.987281
0.0372957 -0.183558 -0.987369
0.0362967 -0.183555 -0.986867
0.0362759 -0.183101 -0.987408
0.0378293 -0.196584 -0.987226
0.0368506 -0.197123 -0.987178
0.0377883 -0.195589 -0.987313
0.0374185 -0.186631 -0.988102
0.0373774 -0.185636 -0.98819
0.0373363 -0.184641 -0.988277
0.0372952 -0.183645 -0.988365
0.0362551 -0.182647 -0.98795
0.0372542 -0.18265 -0.988452
0.0372131 -0.181655 -0.98854
0.036214 -0.181652 -0.988038
0.0361932 -0.181198 -0.98858
0.0378288 -0.196672 -0.988222
0.0368501 -0.197211 -0.988174
0.0377878 -0.195677 -0.988309
0.0377467 -0.194681 -0.988397
0.0377056 -0.193686 -0.988485
0.0376645 -0.192691 -0.988572
0.0376234 -0.191696 -0.98866
0.0372947 -0.183733 -0.989361
0.0372537 -0.182738 -0.989449
0.0372126 -0.181743 -0.989536
0.0361724 -0.180744 -0.989122
0.0371715 -0.180747 -0.989624
0.0361516 -0.18029 -0.989664
0.0368293 -0.196757 -0.988716
0.0367882 -0.195762 -0.988803
0.0367674 -0.195308 -0.989345
0.0377462 -0.194769 -0.989393
0.0377051 -0.193774 -0.989481
0.037664 -0.192779 -0.989568
0.0376229 -0.191783 -0.989656
0.0372532 -0.182826 -0.990445
0.0372121 -0.18183 -0.990532
0.037171 -0.180835 -0.99062
0.0361511 -0.180378 -0.99066
0.0367466 -0.194854 -0.989887
0.0367055 -0.193859 -0.989975
0.0366847 -0.193405 -0.990517
0.0376635 -0.192866 -0.990565
0.0376224 -0.191871 -0.990652
0.0375813 -0.190876 -0.99074
0.0375403 -0.18988 -0.990828
0.0372116 -0.181918 -0.991529
0.0371705 -0.180923 -0.991616
0.0361303 -0.179924 -0.991202
0.0371294 -0.179927 -0.991704
0.0361096 -0.179471 -0.991744
0.036664 -0.192951 -0.991059
0.0366229 -0.191956 -0.991146
0.0365818 -0.19096 -0.991234
0.0365407 -0.189965 -0.991321
0.0365199 -0.189511 -0.991863
0.0374987 -0.188973 -0.991911
0.0374576 -0.187978 -0.991999
0.0374165 -0.186982 -0.992087
0.0373754 -0.185987 -0.992174
0.0373343 -0.184992 -0.992262
0.0372932 -0.183996 -0.992349
0.0372522 -0.183001 -0.992437
0.0372111 -0.182006 -0.992525
0.03717 -0.18101 -0.992612
0.0371289 -0.180015 -0.9927
0.0361091 -0.179558 -0.99274
0.0364991 -0.189058 -0.992405
0.036458 -0.188062 -0.992493
0.0364169 -0.187067 -0.992581
0.0363759 -0.186072 -0.992668
0.0363348 -0.185076 -0.992756
0.0362937 -0.184081 -0.992843
0.0362526 -0.183086 -0.992931
0.0362115 -0.18209 -0.993019
0.0361704 -0.181095 -0.993106
0.0361293 -0.1801 -0.993194
0.034514 -0.186771 -0.965501
0.0345343 -0.187312 -0.965955
0.0355131 -0.186774 -0.966003
0.035472 -0.185778 -0.966091
0.0344729 -0.185775 -0.965589
0.0354309 -0.184783 -0.966179
0.0344318 -0.18478 -0.965676
0.0344111 -0.184326 -0.966218
0.0345546 -0.187854 -0.96641
0.0345749 -0.188395 -0.966864
0.0355537 -0.187857 -0.966912
0.0355126 -0.186861 -0.966999
0.0354715 -0.185866 -0.967087
0.0354304 -0.184871 -0.967175
0.0343903 -0.183873 -0.96676
0.0353893 -0.183876 -0.967262
0.0353482 -0.18288 -0.96735
0.0343492 -0.182877 -0.966848
0.0353071 -0.181885 -0.967438
0.0343081 -0.181882 -0.966935
0.0352661 -0.18089 -0.967525
0.034267 -0.180887 -0.967023
0.035225 -0.179894 -0.967613
0.0342259 -0.179891 -0.967111
0.0351839 -0.178899 -0.967701
0.0341848 -0.178896 -0.967198
0.0351428 -0.177904 -0.967788
0.0341438 -0.177901 -0.967286
0.034123 -0.177447 -0.967828
0.0355532 -0.187945 -0.967908
0.0345744 -0.188483 -0.96786
0.0355121 -0.186949 -0.967996
0.035471 -0.185954 -0.968083
0.0354299 -0.184959 -0.968171
0.0353888 -0.183963 -0.968259
0.0353477 -0.182968 -0.968346
0.0353066 -0.181973 -0.968434
0.0352245 -0.179982 -0.968609
0.0351834 -0.178987 -0.968697
0.0351423 -0.177991 -0.968784
0.0341022 -0.176993 -0.96837
0.0351012 -0.176996 -0.968872
0.0350601 -0.176001 -0.96896
0.0340611 -0.175998 -0.968457
0.035019 -0.175006 -0.969047
0.03402 -0.175003 -0.968545
0.034978 -0.17401 -0.969135
0.0339789 -0.174007 -0.968633
0.0339581 -0.173553 -0.969175
0.0329518 -0.149125 -0.970823
0.0329721 -0.149666 -0.971278
0.0339508 -0.149128 -0.971326
0.032931 -0.148671 -0.971365
0.0345536 -0.188029 -0.968402
0.0345328 -0.187575 -0.968944
0.0355116 -0.187037 -0.968992
0.0354705 -0.186042 -0.969079
0.0354294 -0.185046 -0.969167
0.0353883 -0.184051 -0.969255
0.0353472 -0.183056 -0.969342
0.0353061 -0.18206 -0.96943
0.035224 -0.18007 -0.969605
0.0351829 -0.179074 -0.969693
0.0351418 -0.178079 -0.96978
0.0351007 -0.177084 -0.969868
0.0350596 -0.176089 -0.969956
0.0350185 -0.175093 -0.970043
0.0349775 -0.174098 -0.970131
0.0339373 -0.1731 -0.969716
0.0349364 -0.173103 -0.970219
0.0348953 -0.172107 -0.970306
0.0338962 -0.172104 -0.969804
0.0338755 -0.171651 -0.970346
0.0330745 -0.152198 -0.971557
0.0330948 -0.15274 -0.972011
0.0340736 -0.152201 -0.972059
0.0340325 -0.151206 -0.972146
0.0330335 -0.151203 -0.971644
0.0339914 -0.150211 -0.972234
0.0329924 -0.150208 -0.971732
0.0339503 -0.149215 -0.972322
0.0329102 -0.148217 -0.971907
0.0339093 -0.14822 -0.972409
0.0338682 -0.147225 -0.972497
0.0328691 -0.147222 -0.971995
0.0338271 -0.146229 -0.972585
0.032828 -0.146226 -0.972082
0.0328072 -0.145773 -0.972624
0.034512 -0.187122 -0.969486
0.0344912 -0.186668 -0.970028
0.03547 -0.186129 -0.970076
0.0354289 -0.185134 -0.970163
0.0353878 -0.184139 -0.970251
0.0353467 -0.183143 -0.970338
0.0353056 -0.182148 -0.970426
0.0352646 -0.181153 -0.970514
0.0352235 -0.180158 -0.970601
0.0351824 -0.179162 -0.970689
0.0351413 -0.178167 -0.970777
0.0351002 -0.177172 -0.970864
0.035018 -0.175181 -0.971039
0.034977 -0.174186 -0.971127
0.0349359 -0.17319 -0.971215
0.0348948 -0.172195 -0.971302
0.0338547 -0.171197 -0.970888
0.0348537 -0.1712 -0.97139
0.0348126 -0.170204 -0.971478
0.0338136 -0.170201 -0.970975
0.0337928 -0.169748 -0.971517
0.0331562 -0.154277 -0.972378
0.0331765 -0.154818 -0.972832
0.0341553 -0.15428 -0.97288
0.0341142 -0.153284 -0.972967
0.0331151 -0.153281 -0.972465
0.0340731 -0.152289 -0.973055
0.034032 -0.151294 -0.973143
0.0339909 -0.150298 -0.97323
0.0339498 -0.149303 -0.973318
0.0339088 -0.148308 -0.973405
0.0338677 -0.147312 -0.973493
0.0338266 -0.146317 -0.973581
0.0328067 -0.14586 -0.97362
0.0344704 -0.186214 -0.97057
0.0344496 -0.18576 -0.971111