<VTKFile type="UnstructuredGrid" version="0.1" byte_order="BigEndian">
  <UnstructuredGrid>
    <Piece NumberOfPoints="12556" NumberOfCells="25108">
      <PointData>
        <DataArray type="Float64" Name="position" NumberOfComponents="3" format="ascii">
0.0608303 -0.141792 -0.981048
0.0608488 -0.142326 -0.981511
0.0618327 -0.141796 -0.981543
0.0618013 -0.140799 -0.981614
0.0607989 -0.140795 -0.981119
0.060786 -0.140332 -0.981653
0.0608359 -0.141863 -0.982045
0.0608045 -0.140866 -0.982116
0.0608472 -0.142004 -0.98404
0.0608657 -0.142538 -0.984503
0.0618496 -0.142008 -0.984535
0.0618182 -0.141011 -0.984606
0.0608158 -0.141007 -0.984111
0.0608029 -0.140544 -0.984645
0.0608842 -0.143072 -0.984967
0.0609028 -0.143606 -0.98543
0.0618867 -0.143076 -0.985462
0.0618553 -0.142079 -0.985533
0.0608214 -0.141078 -0.985109
0.0608399 -0.141612 -0.985572
0.0608899 -0.143143 -0.985964
0.0608584 -0.142146 -0.986035
0.0588198 -0.141714 -0.97906
0.0588383 -0.142248 -0.979523
0.0598222 -0.141718 -0.979555
0.0597908 -0.140721 -0.979626
0.0587883 -0.140717 -0.97913
0.0587754 -0.140254 -0.979665
0.0588568 -0.142782 -0.979986
0.0588753 -0.143316 -0.980449
0.0598593 -0.142785 -0.980481
0.0598278 -0.141788 -0.980552
0.0597964 -0.140791 -0.980623
0.0587625 -0.139791 -0.980199
0.059765 -0.139794 -0.980694
0.0587496 -0.139328 -0.980733
0.0598649 -0.142856 -0.981479
0.058881 -0.143386 -0.981447
0.0597706 -0.139865 -0.981692
0.0587553 -0.139398 -0.981731
0.0598705 -0.142927 -0.982476
0.0588866 -0.143457 -0.982444
0.0598391 -0.14193 -0.982547
0.0598077 -0.140933 -0.982618
0.0587923 -0.140466 -0.982657
0.0587738 -0.139932 -0.982194
0.0598762 -0.142998 -0.983474
0.0588922 -0.143528 -0.983442
0.0598447 -0.142001 -0.983545
0.0598133 -0.141004 -0.983616
0.058798 -0.140537 -0.983655
0.0598818 -0.143069 -0.984471
0.0588979 -0.143599 -0.984439
0.0588036 -0.140608 -0.984652
0.0589035 -0.14367 -0.985437
0.0588406 -0.141676 -0.985579
0.0588221 -0.141142 -0.985115
0.0588906 -0.143207 -0.985971
0.0588592 -0.14221 -0.986042
0.0568149 -0.141707 -0.978069
0.0568334 -0.14224 -0.978532
0.0578173 -0.14171 -0.978564
0.056802 -0.141244 -0.978603
0.0568519 -0.142774 -0.978995
0.0568704 -0.143308 -0.979459
0.0578544 -0.142778 -0.979491
0.0567891 -0.14078 -0.979137
0.0567762 -0.140317 -0.979671
0.0568761 -0.143379 -0.980456
0.0577657 -0.139858 -0.980701
0.0567818 -0.140388 -0.980669
0.0568817 -0.14345 -0.981454
0.0577713 -0.139929 -0.981699
0.0567874 -0.140459 -0.981666
0.0568873 -0.143521 -0.982451
0.057777 -0.139999 -0.982696
0.0567745 -0.139996 -0.982201
0.0567616 -0.139533 -0.982735
0.0569059 -0.144055 -0.982914
0.0569244 -0.144588 -0.983378
0.0579083 -0.144058 -0.98341
0.0577826 -0.14007 -0.983693
0.0567672 -0.139604 -0.983732
0.0579139 -0.144129 -0.984407
0.05693 -0.144659 -0.984375
0.0577882 -0.140141 -0.984691
0.0567729 -0.139674 -0.98473
0.0579196 -0.1442 -0.985405
0.0569356 -0.14473 -0.985373
0.0578253 -0.141209 -0.985617
0.0577939 -0.140212 -0.985688
0.0567785 -0.139745 -0.985727
0.0579252 -0.144271 -0.986402
0.0569413 -0.144801 -0.98637
0.0578938 -0.143274 -0.986473
0.0578623 -0.142277 -0.986544
0.0578309 -0.14128 -0.986615
0.056797 -0.140279 -0.986191
0.0568156 -0.140813 -0.986654
0.0569284 -0.144338 -0.986904
0.0569155 -0.143875 -0.987438
0.0578994 -0.143344 -0.987471
0.057868 -0.142347 -0.987541
0.0568341 -0.141347 -0.987117
0.0568526 -0.141881 -0.98758
0.0569026 -0.143412 -0.987973
0.0568712 -0.142415 -0.988044
0.054847 -0.142767 -0.978005
0.0548655 -0.143301 -0.978468
0.0558495 -0.142771 -0.9785
0.0548156 -0.14177 -0.978076
0.0548027 -0.141307 -0.97861
0.0548712 -0.143372 -0.979465
0.0547898 -0.140844 -0.979144
0.0547769 -0.140381 -0.979678
0.0548897 -0.143906 -0.979929
0.0549082 -0.14444 -0.980392
0.0558921 -0.143909 -0.980424
0.0547825 -0.140452 -0.980676
0.0558978 -0.14398 -0.981421
0.0549138 -0.14451 -0.981389
0.0547881 -0.140522 -0.981673
0.0559034 -0.144051 -0.982419
0.0549195 -0.144581 -0.982387
0.0557777 -0.140063 -0.982703
0.0547938 -0.140593 -0.982671
0.0549251 -0.144652 -0.983384
0.0557833 -0.140134 -0.9837
0.0547994 -0.140664 -0.983668
0.0549307 -0.144723 -0.984382
0.055789 -0.140205 -0.984698
0.054805 -0.140735 -0.984666
0.0559203 -0.144263 -0.985411
0.0549178 -0.14426 -0.984916
0.0549049 -0.143797 -0.98545
0.0548421 -0.141803 -0.985592
0.0548236 -0.141269 -0.985129
0.055826 -0.141272 -0.985624
0.0557946 -0.140275 -0.985695
0.0559259 -0.144334 -0.986409
0.054892 -0.143334 -0.985984
0.0558945 -0.143337 -0.98648
0.0548606 -0.142337 -0.986055
0.0558631 -0.14234 -0.986551
0.0558316 -0.141343 -0.986622
0.0559001 -0.143408 -0.987477
0.0558687 -0.142411 -0.987548
0.0528735 -0.143757 -0.976943
0.0528921 -0.144291 -0.977406
0.053876 -0.14376 -0.977438
0.0538445 -0.142763 -0.977509
0.0528421 -0.14276 -0.977014
0.0528292 -0.142297 -0.977548
0.0538816 -0.143831 -0.978436
0.0528977 -0.144361 -0.978404
0.0528163 -0.141834 -0.978082
0.0528034 -0.141371 -0.978617
0.0529162 -0.144895 -0.978867
0.0529347 -0.145429 -0.97933
0.0539187 -0.144899 -0.979362
0.0538872 -0.143902 -0.979433
0.053793 -0.140911 -0.979646
0.052809 -0.141441 -0.979614
0.0539243 -0.14497 -0.98036
0.0529404 -0.1455 -0.980328
0.0527961 -0.140978 -0.980148
0.0527832 -0.140515 -0.980683
0.0539299 -0.145041 -0.981357
0.052946 -0.145571 -0.981325
0.0527889 -0.140586 -0.98168
0.0539356 -0.145111 -0.982355
0.0529516 -0.145642 -0.982323
0.0527945 -0.140657 -0.982677
0.0529387 -0.145179 -0.982857
0.0529258 -0.144715 -0.983391
0.0528001 -0.140728 -0.983675
0.0529315 -0.144786 -0.984389
0.0528058 -0.140798 -0.984672
0.053921 -0.144327 -0.985418
0.0529371 -0.144857 -0.985386
0.0528428 -0.141866 -0.985599
0.0528243 -0.141332 -0.985136
0.0529242 -0.144394 -0.98592
0.0528928 -0.143397 -0.985991
0.0528613 -0.1424 -0.986062
0.0509 -0.144746 -0.975881
0.0509186 -0.14528 -0.976345
0.0519025 -0.14475 -0.976377
0.0518711 -0.143753 -0.976448
0.0508686 -0.143749 -0.975952
0.0508557 -0.143286 -0.976487
0.0519081 -0.144821 -0.977374
0.0509242 -0.145351 -0.977342
0.0508428 -0.142823 -0.977021
0.0508299 -0.14236 -0.977555
0.0519138 -0.144892 -0.978372
0.0509298 -0.145422 -0.97834
0.050817 -0.141897 -0.978089
0.0508041 -0.141434 -0.978623
0.0509355 -0.145493 -0.979337
0.0508098 -0.141505 -0.979621
0.0509411 -0.145564 -0.980335
0.0517993 -0.141045 -0.98065
0.0508154 -0.141576 -0.980618
0.0509467 -0.145634 -0.981332
0.0518049 -0.141116 -0.981648
0.050821 -0.141646 -0.981616
0.0509524 -0.145705 -0.982329
0.0518106 -0.141187 -0.982645
0.0508266 -0.141717 -0.982613
0.0519419 -0.145246 -0.983359
0.050958 -0.145776 -0.983327
0.0518162 -0.141258 -0.983643
0.0508323 -0.141788 -0.983611
0.0519475 -0.145317 -0.984357
0.0509636 -0.145847 -0.984324
0.0518218 -0.141329 -0.98464
0.0508379 -0.141859 -0.984608
0.0519532 -0.145387 -0.985354
0.0509692 -0.145918 -0.985322
0.050875 -0.142927 -0.985535
0.0508564 -0.142393 -0.985071
0.0518589 -0.142396 -0.985567
0.0509563 -0.145455 -0.985856
0.0509434 -0.144991 -0.98639
0.0519274 -0.144461 -0.986422
0.050912 -0.143994 -0.986461
0.0508935 -0.143461 -0.985998
0.0509305 -0.144528 -0.986925
0.0489266 -0.145736 -0.97482
0.0489451 -0.14627 -0.975283
0.049929 -0.14574 -0.975315
0.0498976 -0.144743 -0.975386
0.0488951 -0.144739 -0.974891
0.0488822 -0.144276 -0.975425
0.0499347 -0.145811 -0.976313
0.0489507 -0.146341 -0.97628
0.0488693 -0.143813 -0.975959
0.0488564 -0.14335 -0.976493
0.0499403 -0.145881 -0.97731
0.0489564 -0.146412 -0.977278
0.0488435 -0.142887 -0.977028
0.0488306 -0.142424 -0.977562
0.0499459 -0.145952 -0.978308
0.048962 -0.146482 -0.978275
0.0498202 -0.141964 -0.978591
0.0488363 -0.142495 -0.978559
0.0499515 -0.146023 -0.979305
0.0489676 -0.146553 -0.979273
0.0488234 -0.142031 -0.979093
0.0488105 -0.141568 -0.979628
0.0499572 -0.146094 -0.980302
0.0489732 -0.146624 -0.98027
0.0488161 -0.141639 -0.980625
0.0499628 -0.146165 -0.9813
0.0489789 -0.146695 -0.981268
0.0488217 -0.14171 -0.981623
0.0499684 -0.146235 -0.982297
0.0489845 -0.146766 -0.982265
0.0488274 -0.141781 -0.98262
0.0499741 -0.146306 -0.983295
0.0489901 -0.146836 -0.983263
0.0488644 -0.142849 -0.983547
0.0488459 -0.142315 -0.983083
0.0498483 -0.142318 -0.983579
0.0499797 -0.146377 -0.984292
0.0489958 -0.146907 -0.98426
0.049854 -0.142389 -0.984576
0.0488701 -0.142919 -0.984544
0.0499853 -0.146448 -0.98529
0.0490014 -0.146978 -0.985258
0.0488757 -0.14299 -0.985542
0.0489885 -0.146515 -0.985792
0.0489756 -0.146052 -0.986326
0.0499595 -0.145522 -0.986358
0.0489127 -0.144058 -0.986468
0.0488942 -0.143524 -0.986005
0.0489627 -0.145589 -0.98686
0.0489313 -0.144592 -0.986931
0.0469273 -0.1458 -0.974827
0.0469458 -0.146334 -0.97529
0.0469144 -0.145337 -0.975361
0.0478983 -0.144806 -0.975393
0.0469643 -0.146867 -0.975753
0.0469829 -0.147401 -0.976216
0.0479668 -0.146871 -0.976248
0.0469015 -0.144873 -0.975895
0.0468886 -0.14441 -0.976429
0.0478725 -0.14388 -0.976461
0.0479724 -0.146942 -0.977246
0.0469885 -0.147472 -0.977214
0.0468757 -0.143947 -0.976963
0.0468628 -0.143484 -0.977498
0.0478467 -0.142954 -0.97753
0.0479781 -0.147013 -0.978243
0.0469941 -0.147543 -0.978211
0.0468499 -0.143021 -0.978032
0.046837 -0.142558 -0.978566
0.0479837 -0.147084 -0.979241
0.0469998 -0.147614 -0.979209
0.0478266 -0.142099 -0.979596
0.0468426 -0.142629 -0.979563
0.0479893 -0.147154 -0.980238
0.0470054 -0.147685 -0.980206
0.0468297 -0.142166 -0.980098
0.0468168 -0.141703 -0.980632
0.047995 -0.147225 -0.981236
0.047011 -0.147755 -0.981204
0.0468225 -0.141773 -0.981629
0.0469981 -0.147292 -0.981738
0.0469852 -0.146829 -0.982272
0.0468281 -0.141844 -0.982627
0.0469909 -0.1469 -0.98327
0.0478491 -0.142382 -0.983585
0.0468337 -0.141915 -0.983624
0.0469965 -0.146971 -0.984267
0.0468708 -0.142983 -0.984551
0.0468522 -0.142449 -0.984088
0.0470021 -0.147042 -0.985265
0.0468764 -0.143054 -0.985548
0.0469892 -0.146579 -0.985799
0.0469763 -0.146115 -0.986333
0.0469135 -0.144121 -0.986475
0.0468949 -0.143588 -0.986012
0.0469634 -0.145652 -0.986867
0.046932 -0.144655 -0.986938
0.0449594 -0.14686 -0.974762
0.044978 -0.147394 -0.975226
0.0459619 -0.146864 -0.975258
0.044928 -0.145863 -0.974833
0.0449151 -0.1454 -0.975367
0.0449836 -0.147465 -0.976223
0.0449022 -0.144937 -0.975902
0.0448893 -0.144474 -0.976436
0.0449892 -0.147536 -0.977221
0.0448764 -0.144011 -0.97697
0.0448635 -0.143548 -0.977504
0.0450078 -0.14807 -0.977684
0.0450263 -0.148603 -0.978147
0.0460102 -0.148073 -0.978179
0.0448506 -0.143085 -0.978039
0.0448377 -0.142622 -0.978573
0.0450134 -0.14814 -0.978681
0.0450005 -0.147677 -0.979216
0.0458273 -0.142162 -0.979602
0.0448248 -0.142158 -0.979107
0.0448119 -0.141695 -0.979641
0.0450061 -0.147748 -0.980213
0.0448176 -0.141766 -0.980639
0.0450118 -0.147819 -0.98121
0.0448232 -0.141837 -0.981636
0.0460013 -0.147359 -0.98224
0.0450174 -0.14789 -0.982208
0.0448288 -0.141908 -0.982634
0.0460069 -0.14743 -0.983237
0.045023 -0.14796 -0.983205
0.0448344 -0.141979 -0.983631
0.0460126 -0.147501 -0.984235
0.0450286 -0.148031 -0.984203
0.0458554 -0.142516 -0.98459
0.0448401 -0.142049 -0.984629
0.0460182 -0.147572 -0.985232
0.0450343 -0.148102 -0.9852
0.0448771 -0.143117 -0.985555
0.0448586 -0.142583 -0.985092
0.0450214 -0.147639 -0.985735
0.0450085 -0.147176 -0.986269
0.0459924 -0.146646 -0.986301
0.0449456 -0.145182 -0.986411
0.0449271 -0.144648 -0.985947
0.0459295 -0.144652 -0.986443
0.0448957 -0.143651 -0.986018
0.0449956 -0.146713 -0.986803
0.0449641 -0.145716 -0.986874
0.0429602 -0.146924 -0.974769
0.0429787 -0.147458 -0.975232
0.0429287 -0.145927 -0.97484
0.0429158 -0.145464 -0.975374
0.0429972 -0.147991 -0.975696
0.0430158 -0.148525 -0.976159
0.0439997 -0.147995 -0.976191
0.0429029 -0.145 -0.975908
0.043874 -0.144007 -0.976475
0.0428715 -0.144003 -0.975979
0.0428586 -0.14354 -0.976514
0.0430343 -0.149059 -0.976622
0.0430528 -0.149593 -0.977085
0.0440367 -0.149063 -0.977118
0.0440053 -0.148066 -0.977188
0.0438482 -0.143081 -0.977543
0.0428457 -0.143077 -0.977048
0.0428328 -0.142614 -0.977582
0.0440424 -0.149134 -0.978115
0.0430584 -0.149664 -0.978083
0.0438224 -0.142155 -0.978612
0.0428199 -0.142151 -0.978116
0.042807 -0.141688 -0.97865
0.044048 -0.149204 -0.979112
0.0430641 -0.149735 -0.97908
0.0440166 -0.148208 -0.979183
0.0428126 -0.141759 -0.979648
0.0440536 -0.149275 -0.98011
0.0430697 -0.149806 -0.980078
0.0440222 -0.148278 -0.980181
0.0438022 -0.141299 -0.980678
0.0427997 -0.141296 -0.980182
0.0427868 -0.140833 -0.980716
0.0430568 -0.149342 -0.980612
0.0430439 -0.148879 -0.981146
0.0440278 -0.148349 -0.981178
0.0438078 -0.14137 -0.981675
0.0427925 -0.140903 -0.981714
0.0440335 -0.14842 -0.982176
0.0430495 -0.14895 -0.982144
0.0438135 -0.141441 -0.982672
0.0427981 -0.140974 -0.982711
0.0440391 -0.148491 -0.983173
0.0430552 -0.149021 -0.983141
0.0438191 -0.141512 -0.98367
0.0428037 -0.141045 -0.983709
0.0440447 -0.148562 -0.984171
0.0430608 -0.149092 -0.984139
0.0428408 -0.142113 -0.984635
0.0428223 -0.141579 -0.984172
0.0440503 -0.148632 -0.985168
0.0430664 -0.149163 -0.985136
0.0428779 -0.143181 -0.985562
0.0428593 -0.142647 -0.985099
0.0430535 -0.148699 -0.98567
0.0430406 -0.148236 -0.986205
0.0440245 -0.147706 -0.986237
0.0429463 -0.145245 -0.986417
0.0429278 -0.144712 -0.985954
0.0428964 -0.143715 -0.986025
0.0430277 -0.147773 -0.986739
0.0429963 -0.146776 -0.98681
0.0429649 -0.145779 -0.986881
0.0409923 -0.147984 -0.974705
0.0410108 -0.148518 -0.975168
0.0419948 -0.147988 -0.9752
0.0409609 -0.146987 -0.974776
0.0409295 -0.14599 -0.974847
0.0419005 -0.144997 -0.975413
0.040898 -0.144993 -0.974918
0.0408851 -0.14453 -0.975452
0.0410294 -0.149052 -0.975631
0.0410479 -0.149586 -0.976095
0.0420318 -0.149056 -0.976127
0.0408722 -0.144067 -0.975986
0.0418433 -0.143074 -0.976553
0.0408408 -0.14307 -0.976057
0.0418118 -0.142077 -0.976623
0.0408094 -0.142073 -0.976128
0.0407965 -0.14161 -0.976662
0.0410535 -0.149657 -0.977092
0.0418175 -0.142147 -0.977621
0.0407836 -0.141147 -0.977197
0.041786 -0.141151 -0.977692
0.0407707 -0.140684 -0.977731
0.0410721 -0.150191 -0.977555
0.0410906 -0.150724 -0.978019
0.0420745 -0.150194 -0.978051
0.0417917 -0.141221 -0.978689
0.0407578 -0.140221 -0.978265
0.0417602 -0.140224 -0.97876
0.0407449 -0.139758 -0.978799
0.0420801 -0.150265 -0.979048
0.0410962 -0.150795 -0.979016
0.0417973 -0.141292 -0.979687
0.0417659 -0.140295 -0.979758
0.040732 -0.139294 -0.979333
0.0417344 -0.139298 -0.979829
0.0407191 -0.138831 -0.979868
0.0410833 -0.150332 -0.97955
0.0410704 -0.149869 -0.980085
0.0417715 -0.140366 -0.980755
0.0417401 -0.139369 -0.980826
0.0407247 -0.138902 -0.980865
0.04206 -0.14941 -0.981114
0.0410761 -0.14994 -0.981082
0.0417771 -0.140437 -0.981753
0.0417457 -0.13944 -0.981824
0.0407303 -0.138973 -0.981863
0.0420656 -0.14948 -0.982112
0.0410817 -0.150011 -0.98208
0.0417828 -0.140508 -0.98275
0.0417513 -0.139511 -0.982821
0.040736 -0.139044 -0.98286
0.0420712 -0.149551 -0.983109
0.0410873 -0.150081 -0.983077
0.0417884 -0.140578 -0.983748
0.0407545 -0.139578 -0.983323
0.040773 -0.140112 -0.983787
0.0420769 -0.149622 -0.984107
0.0410929 -0.150152 -0.984075
0.0418254 -0.141646 -0.984674
0.0408101 -0.141179 -0.984713
0.0407916 -0.140646 -0.98425
0.0420825 -0.149693 -0.985104
0.0410986 -0.150223 -0.985072
0.0418625 -0.142714 -0.985601
0.0408472 -0.142247 -0.98564
0.0408286 -0.141713 -0.985176
0.0420881 -0.149764 -0.986102
0.0411042 -0.150294 -0.986069
0.0420567 -0.148767 -0.986173
0.041931 -0.144779 -0.986456
0.0409156 -0.144312 -0.986495
0.0408971 -0.143778 -0.986032
0.0408657 -0.142781 -0.986103
0.0410913 -0.149831 -0.986604
0.0410599 -0.148834 -0.986675
0.0410285 -0.147837 -0.986746
0.040997 -0.14684 -0.986817
0.0409656 -0.145843 -0.986887
0.0409342 -0.144846 -0.986958
0.0421139 -0.181947 -0.987326
0.0421324 -0.182481 -0.987789
0.0431163 -0.18195 -0.987821
0.0430849 -0.180953 -0.987892
0.0420825 -0.18095 -0.987397
0.0430535 -0.179956 -0.987963
0.042051 -0.179953 -0.987468
0.0430221 -0.178959 -0.988034
0.0420196 -0.178956 -0.987539
0.0429906 -0.177962 -0.988105
0.0419882 -0.177959 -0.98761
0.0429592 -0.176965 -0.988176
0.0419568 -0.176962 -0.987681
0.0429278 -0.175968 -0.988247
0.0419253 -0.175965 -0.987751
0.0428963 -0.174971 -0.988318
0.0418939 -0.174968 -0.987822
0.041881 -0.174505 -0.988357
0.0421195 -0.182018 -0.988323
0.0420881 -0.181021 -0.988394
0.0420567 -0.180024 -0.988465
0.0420252 -0.179027 -0.988536
0.0420123 -0.178563 -0.98907
0.0429963 -0.178033 -0.989102
0.0429648 -0.177036 -0.989173
0.0429334 -0.176039 -0.989244
0.042902 -0.175042 -0.989315
0.0418681 -0.174042 -0.988891
0.0428706 -0.174045 -0.989386
0.0428391 -0.173048 -0.989457
0.0418367 -0.173045 -0.988962
0.0428077 -0.172051 -0.989528
0.0418052 -0.172048 -0.989033
0.0417923 -0.171585 -0.989567
0.0430019 -0.178104 -0.9901
0.042018 -0.178634 -0.990068
0.0429705 -0.177107 -0.990171
0.042939 -0.17611 -0.990242
0.0429076 -0.175113 -0.990313
0.0428762 -0.174116 -0.990384
0.0428448 -0.173119 -0.990455
0.0428133 -0.172122 -0.990526
0.0417794 -0.171121 -0.990101
0.0427819 -0.171125 -0.990597
0.0417665 -0.170658 -0.990635
0.0420051 -0.178171 -0.990602
0.0419736 -0.177174 -0.990673
0.0419607 -0.176711 -0.991207
0.0429447 -0.176181 -0.991239
0.0429132 -0.175184 -0.99131
0.0428818 -0.174187 -0.991381
0.0428504 -0.17319 -0.991452
0.042819 -0.172193 -0.991523
0.0427875 -0.171196 -0.991594
0.0417536 -0.170195 -0.99117
0.0427561 -0.170199 -0.991665
0.0417407 -0.169732 -0.991704
0.0419478 -0.176248 -0.991741
0.0419164 -0.175251 -0.991812
0.041885 -0.174254 -0.991883
0.0418536 -0.173257 -0.991954
0.0418221 -0.17226 -0.992025
0.0417907 -0.171263 -0.992096
0.0417593 -0.170266 -0.992167
0.0396249 -0.16863 -0.968234
0.0396434 -0.169164 -0.968698
0.0406273 -0.168634 -0.96873
0.039612 -0.168167 -0.968769
0.040633 -0.168705 -0.969727
0.039649 -0.169235 -0.969695
0.0396176 -0.168238 -0.969766
0.0396361 -0.168772 -0.970229
0.039479 -0.163787 -0.970584
0.0394975 -0.164321 -0.971047
0.0404815 -0.163791 -0.971079
0.0394661 -0.163324 -0.971118
0.0394846 -0.163858 -0.971582
0.0386361 -0.136939 -0.973497
0.0386546 -0.137473 -0.97396
0.0396385 -0.136943 -0.973993
0.0396071 -0.135946 -0.974063
0.0386046 -0.135942 -0.973568
0.0395757 -0.134949 -0.974134
0.0385732 -0.134945 -0.973639
0.0395442 -0.133952 -0.974205
0.0385418 -0.133948 -0.97371
0.0385289 -0.133485 -0.974244
0.0388931 -0.144986 -0.973927
0.0389117 -0.14552 -0.97439
0.0398956 -0.14499 -0.974422
0.0398642 -0.143993 -0.974493
0.0388617 -0.143989 -0.973998
0.0398327 -0.142996 -0.974564
0.0388303 -0.142992 -0.974069
0.0398013 -0.141999 -0.974635
0.0387988 -0.141995 -0.97414
0.0397699 -0.141002 -0.974706
0.0387674 -0.140998 -0.974211
0.0397384 -0.140005 -0.974777
0.038736 -0.140001 -0.974282
0.039707 -0.139008 -0.974848
0.0387046 -0.139004 -0.974353
0.0396756 -0.138011 -0.974919
0.0386731 -0.138007 -0.974424
0.0396442 -0.137014 -0.97499
0.0396127 -0.136017 -0.975061
0.0395813 -0.13502 -0.975132
0.0395499 -0.134023 -0.975203
0.038516 -0.133022 -0.974778
0.0395184 -0.133026 -0.975274
0.0385031 -0.132559 -0.975313
0.0390559 -0.150042 -0.97457
0.0390744 -0.150576 -0.975033
0.0400584 -0.150045 -0.975065
0.0400269 -0.149048 -0.975136
0.0390245 -0.149045 -0.974641
0.038993 -0.148048 -0.974712
0.0389616 -0.147051 -0.974783
0.0389302 -0.146054 -0.974854
0.0398698 -0.144063 -0.975491
0.0398384 -0.143066 -0.975562
0.0398069 -0.142069 -0.975633
0.0397755 -0.141072 -0.975704
0.0397441 -0.140075 -0.975775
0.0397126 -0.139078 -0.975846
0.0396812 -0.138081 -0.975917
0.0396498 -0.137084 -0.975987
0.0396184 -0.136087 -0.976058
0.0395869 -0.13509 -0.976129
0.0395555 -0.134094 -0.9762
0.0395241 -0.133097 -0.976271
0.0385087 -0.13263 -0.97631
0.040064 -0.150116 -0.976063
0.0390801 -0.150646 -0.976031
0.0397811 -0.141143 -0.976701
0.0397497 -0.140146 -0.976772
0.0397183 -0.139149 -0.976843
0.0396868 -0.138152 -0.976914
0.0396554 -0.137155 -0.976985
0.039624 -0.136158 -0.977056
0.0395926 -0.135161 -0.977127
0.0395611 -0.134164 -0.977198
0.0395297 -0.133167 -0.977269
0.0384958 -0.132167 -0.976844
0.0394983 -0.13217 -0.97734
0.0384829 -0.131704 -0.977379
0.0390986 -0.15118 -0.976494
0.0391171 -0.151714 -0.976957
0.040101 -0.151184 -0.976989
0.0400696 -0.150187 -0.97706
0.0397553 -0.140217 -0.97777
0.0397239 -0.13922 -0.977841
0.0396925 -0.138223 -0.977911
0.039661 -0.137226 -0.977982
0.0396296 -0.136229 -0.978053
0.0395982 -0.135232 -0.978124
0.0395668 -0.134235 -0.978195
0.0395353 -0.133238 -0.978266
0.0395039 -0.132241 -0.978337
0.0384886 -0.131774 -0.978376
0.0401067 -0.151255 -0.977987
0.0391227 -0.151785 -0.977955
0.0397295 -0.139291 -0.978838
0.0396981 -0.138294 -0.978909
0.0396667 -0.137297 -0.97898
0.0396352 -0.1363 -0.979051
0.0396038 -0.135303 -0.979122
0.0395724 -0.134306 -0.979193
0.039541 -0.133309 -0.979264
0.0395095 -0.132312 -0.979335
0.0384942 -0.131845 -0.979374
0.0401123 -0.151325 -0.978984
0.0391284 -0.151856 -0.978952
0.0397037 -0.138365 -0.979906
0.0396723 -0.137368 -0.979977
0.0396409 -0.136371 -0.980048
0.0396095 -0.135374 -0.980119
0.039578 -0.134377 -0.98019
0.0395466 -0.13338 -0.980261
0.0395152 -0.132383 -0.980332
0.0384998 -0.131916 -0.980371
0.0401179 -0.151396 -0.979982
0.039134 -0.151927 -0.97995
0.0400865 -0.150399 -0.980053
0.0397094 -0.138435 -0.980904
0.0396779 -0.137438 -0.980975
0.0396465 -0.136441 -0.981046
0.0396151 -0.135445 -0.981117
0.0395837 -0.134448 -0.981188
0.0395522 -0.133451 -0.981259
0.0385183 -0.13245 -0.980834
0.0385369 -0.132984 -0.981298
0.0391211 -0.151463 -0.980484
0.0391082 -0.151 -0.981018
0.0400921 -0.15047 -0.98105
0.039715 -0.138506 -0.981901
0.0396836 -0.137509 -0.981972
0.0396521 -0.136512 -0.982043
0.0396207 -0.135515 -0.982114
0.0385868 -0.134515 -0.98169
0.0386054 -0.135049 -0.982153
0.0385554 -0.133518 -0.981761
0.0400978 -0.150541 -0.982047
0.0391138 -0.151071 -0.982015
0.0397206 -0.138577 -0.982899
0.0396892 -0.13758 -0.98297
0.0386553 -0.136579 -0.982545
0.0386738 -0.137113 -0.983009
0.0386239 -0.135582 -0.982616
0.0401034 -0.150612 -0.983045
0.0391195 -0.151142 -0.983013
0.0397577 -0.139645 -0.983825
0.0397263 -0.138648 -0.983896
0.0386924 -0.137647 -0.983472
0.0387109 -0.138181 -0.983935
0.040109 -0.150683 -0.984042
0.0391251 -0.151213 -0.98401
0.0397947 -0.140713 -0.984752
0.0397633 -0.139716 -0.984823
0.0387294 -0.138715 -0.984398
0.038748 -0.139249 -0.984862
0.0401147 -0.150753 -0.98504
0.0391307 -0.151284 -0.985008
0.0398318 -0.14178 -0.985678
0.0388164 -0.141314 -0.985717
0.0387979 -0.14078 -0.985254
0.0387665 -0.139783 -0.985325
0.0401203 -0.150824 -0.986037
0.0391364 -0.151354 -0.986005
0.0399003 -0.143845 -0.986534
0.0388849 -0.143378 -0.986573
0.0388664 -0.142845 -0.98611
0.038835 -0.141848 -0.986181
0.0391235 -0.150891 -0.98654
0.0391106 -0.150428 -0.987074
0.0400945 -0.149898 -0.987106
0.0400631 -0.148901 -0.987177
0.0400316 -0.147904 -0.987248
0.0400002 -0.146907 -0.987319
0.0389848 -0.14644 -0.987358
0.0389663 -0.145906 -0.986894
0.0389349 -0.144909 -0.986965
0.0389035 -0.143912 -0.987036
0.0401034 -0.181869 -0.985338
0.0401219 -0.182403 -0.985801
0.0411058 -0.181872 -0.985833
0.0410744 -0.180875 -0.985904
0.0400719 -0.180872 -0.985409
0.041043 -0.179878 -0.985975
0.0400405 -0.179875 -0.98548
0.0410115 -0.178881 -0.986046
0.0400091 -0.178878 -0.98555
0.0409801 -0.177884 -0.986117
0.0399776 -0.177881 -0.985621
0.0409487 -0.176887 -0.986188
0.0399462 -0.176884 -0.985692
0.0409172 -0.17589 -0.986259
0.0399148 -0.175887 -0.985763
0.0408858 -0.174893 -0.98633
0.0398834 -0.17489 -0.985834
0.0408544 -0.173896 -0.986401
0.0398519 -0.173893 -0.985905
0.040823 -0.172899 -0.986471
0.0398205 -0.172896 -0.985976
0.0398076 -0.172433 -0.98651
0.0390977 -0.149965 -0.987608
0.0390662 -0.148968 -0.987679
0.0390348 -0.147971 -0.98775
0.0390034 -0.146974 -0.987821
0.0401718 -0.183933 -0.986193
0.0401904 -0.184467 -0.986656
0.0411743 -0.183937 -0.986689
0.0411429 -0.18294 -0.986759
0.0401404 -0.182936 -0.986264
0.0411114 -0.181943 -0.98683
0.04108 -0.180946 -0.986901
0.0410486 -0.179949 -0.986972
0.0410172 -0.178952 -0.987043
0.0409857 -0.177955 -0.987114
0.0409543 -0.176958 -0.987185
0.0409229 -0.175961 -0.987256
0.0408914 -0.174964 -0.987327
0.04086 -0.173967 -0.987398
0.0408286 -0.17297 -0.987469
0.0397947 -0.17197 -0.987045
0.0407972 -0.171973 -0.98754
0.0407657 -0.170976 -0.987611
0.0397633 -0.170973 -0.987116
0.0397504 -0.170509 -0.98765
0.0411799 -0.184008 -0.987686
0.040196 -0.184538 -0.987654
0.0411485 -0.183011 -0.987757
0.0408656 -0.174038 -0.988395
0.0408342 -0.173041 -0.988466
0.0408028 -0.172044 -0.988537
0.0407714 -0.171047 -0.988608
0.0397375 -0.170046 -0.988184
0.0407399 -0.17005 -0.988679
0.0407085 -0.169053 -0.98875
0.0397061 -0.169049 -0.988255
0.0396932 -0.168586 -0.988789
0.0411856 -0.184079 -0.988683
0.0402016 -0.184609 -0.988651
0.0411541 -0.183082 -0.988754
0.0411227 -0.182085 -0.988825
0.0410913 -0.181088 -0.988896
0.0410598 -0.180091 -0.988967
0.0410284 -0.179094 -0.989038
0.040777 -0.171118 -0.989606
0.0407456 -0.170121 -0.989677
0.0407141 -0.169124 -0.989748
0.0396803 -0.168123 -0.989323
0.0406827 -0.168127 -0.989819
0.0396674 -0.16766 -0.989858
0.0401887 -0.184146 -0.989186
0.0401573 -0.183149 -0.989257
0.0401444 -0.182686 -0.989791
0.0411283 -0.182155 -0.989823
0.0410969 -0.181158 -0.989894
0.0410655 -0.180162 -0.989965
0.041034 -0.179165 -0.990036
0.0407512 -0.170192 -0.990674
0.0407198 -0.169195 -0.990745
0.0406883 -0.168198 -0.990816
0.039673 -0.167731 -0.990855
0.0401315 -0.182223 -0.990325
0.0401001 -0.181226 -0.990396
0.0400872 -0.180763 -0.99093
0.0410711 -0.180232 -0.990962
0.0410397 -0.179235 -0.991033
0.0410082 -0.178238 -0.991104
0.0409768 -0.177241 -0.991175
0.0407254 -0.169265 -0.991743
0.040694 -0.168268 -0.991814
0.0396601 -0.167268 -0.991389
0.0406625 -0.167272 -0.991885
0.0396472 -0.166805 -0.991923
0.0400743 -0.180299 -0.991464
0.0400429 -0.179302 -0.991535
0.0400114 -0.178305 -0.991606
0.03998 -0.177309 -0.991677
0.0399671 -0.176845 -0.992211
0.040951 -0.176315 -0.992243
0.0409196 -0.175318 -0.992314
0.0408882 -0.174321 -0.992385
0.0408567 -0.173324 -0.992456
0.0408253 -0.172327 -0.992527
0.0407939 -0.17133 -0.992598
0.0407625 -0.170333 -0.992669
0.040731 -0.169336 -0.99274
0.0406996 -0.168339 -0.992811
0.0406682 -0.167342 -0.992882
0.0396528 -0.166876 -0.992921
0.0399542 -0.176382 -0.992746
0.0399228 -0.175385 -0.992817
0.0398913 -0.174388 -0.992888
0.0398599 -0.173391 -0.992958
0.0398285 -0.172394 -0.993029
0.0397971 -0.171397 -0.9931
0.0397656 -0.1704 -0.993171
0.0397342 -0.169403 -0.993242
0.0397028 -0.168406 -0.993313
0.0396713 -0.167409 -0.993384
0.0378029 -0.174534 -0.965821
0.0378214 -0.175068 -0.966284
0.0388054 -0.174538 -0.966316
0.0387739 -0.173541 -0.966387
0.0377715 -0.173537 -0.965892
0.0387425 -0.172544 -0.966458
0.0377401 -0.17254 -0.965962
0.0377272 -0.172077 -0.966497
0.03784 -0.175602 -0.966747
0.0378585 -0.176136 -0.96721
0.0388424 -0.175606 -0.967242
0.038811 -0.174609 -0.967313
0.0387796 -0.173612 -0.967384
0.0387481 -0.172615 -0.967455
0.0377143 -0.171614 -0.967031
0.0387167 -0.171618 -0.967526
0.0386853 -0.170621 -0.967597
0.0376828 -0.170617 -0.967102
0.0386539 -0.169624 -0.967668
0.0376514 -0.16962 -0.967173
0.0386224 -0.168627 -0.967739
0.03762 -0.168623 -0.967244
0.038591 -0.16763 -0.96781
0.0375885 -0.167626 -0.967315
0.0385596 -0.166633 -0.967881
0.0375571 -0.166629 -0.967386
0.0385281 -0.165636 -0.967952
0.0375257 -0.165632 -0.967457
0.0375128 -0.165169 -0.967991
0.0388481 -0.175676 -0.96824
0.0378641 -0.176207 -0.968208
0.0388166 -0.174679 -0.968311
0.0387852 -0.173682 -0.968382
0.0387538 -0.172685 -0.968453
0.0387223 -0.171688 -0.968524
0.0386909 -0.170691 -0.968595
0.0386595 -0.169694 -0.968666
0.0385966 -0.1677 -0.968808
0.0385652 -0.166703 -0.968878
0.0385338 -0.165707 -0.968949
0.0374999 -0.164706 -0.968525
0.0385023 -0.16471 -0.96902
0.0384709 -0.163713 -0.969091
0.0374685 -0.163709 -0.968596
0.0384395 -0.162716 -0.969162
0.037437 -0.162712 -0.968667
0.0384081 -0.161719 -0.969233
0.0374056 -0.161715 -0.968738
0.0373927 -0.161252 -0.969272
0.0366199 -0.13679 -0.970512
0.0366384 -0.137324 -0.970975
0.0376224 -0.136794 -0.971007
0.036607 -0.136327 -0.971046
0.0378512 -0.175744 -0.968742
0.0378383 -0.17528 -0.969276
0.0388223 -0.17475 -0.969308
0.0387908 -0.173753 -0.969379
0.0387594 -0.172756 -0.96945
0.038728 -0.171759 -0.969521
0.0386965 -0.170762 -0.969592
0.0386651 -0.169765 -0.969663
0.0386023 -0.167771 -0.969805
0.0385708 -0.166774 -0.969876
0.0385394 -0.165777 -0.969947
0.038508 -0.16478 -0.970018
0.0384765 -0.163783 -0.970089
0.0384451 -0.162786 -0.97016
0.0384137 -0.161789 -0.970231
0.0373798 -0.160789 -0.969806
0.0383823 -0.160792 -0.970302
0.0383508 -0.159795 -0.970373
0.0373484 -0.159792 -0.969877
0.0373355 -0.159329 -0.970411
0.0367198 -0.139852 -0.971296
0.0367384 -0.140386 -0.971759
0.0377223 -0.139856 -0.971792
0.0376908 -0.138859 -0.971862
0.0366884 -0.138855 -0.971367
0.0376594 -0.137862 -0.971933
0.036657 -0.137858 -0.971438
0.037628 -0.136865 -0.972004
0.0365941 -0.135864 -0.97158
0.0375966 -0.135868 -0.972075
0.0375651 -0.134871 -0.972146
0.0365627 -0.134867 -0.971651
0.0375337 -0.133874 -0.972217
0.0365313 -0.13387 -0.971722
0.0365184 -0.133407 -0.972256
0.0378254 -0.174817 -0.96981
0.0378125 -0.174354 -0.970345
0.0387965 -0.173824 -0.970377
0.038765 -0.172827 -0.970448
0.0387336 -0.17183 -0.970519
0.0387022 -0.170833 -0.97059
0.0386707 -0.169836 -0.970661
0.0386393 -0.168839 -0.970732
0.0386079 -0.167842 -0.970802
0.0385765 -0.166845 -0.970873
0.038545 -0.165848 -0.970944
0.0385136 -0.164851 -0.971015
0.0384507 -0.162857 -0.971157
0.0384193 -0.16186 -0.971228
0.0383879 -0.160863 -0.971299
0.0383565 -0.159866 -0.97137
0.0373226 -0.158866 -0.970946
0.038325 -0.158869 -0.971441
0.0382936 -0.157872 -0.971512
0.0372912 -0.157869 -0.971017
0.0372783 -0.157405 -0.971551
0.0367883 -0.141917 -0.972152
0.0368068 -0.142451 -0.972615
0.0377908 -0.14192 -0.972647
0.0377593 -0.140923 -0.972718
0.0367569 -0.14092 -0.972223
0.0377279 -0.139927 -0.972789
0.0376965 -0.13893 -0.97286
0.037665 -0.137933 -0.972931
0.0376336 -0.136936 -0.973002
0.0376022 -0.135939 -0.973073
0.0375708 -0.134942 -0.973144
0.0375393 -0.133945 -0.973215
0.036524 -0.133478 -0.973254
0.0377996 -0.173891 -0.970879