<VTKFile type="UnstructuredGrid" version="0.1" byte_order="BigEndian">
  <UnstructuredGrid>
    <Piece NumberOfPoints="14610" NumberOfCells="29220">
      <PointData>
        <DataArray type="Float64" Name="position" NumberOfComponents="3" format="ascii">
0.0405817 0.241659 -0.231569
0.0405915 0.241175 -0.232085
0.0415865 0.24168 -0.232055
0.0415803 0.24268 -0.232023
0.0405755 0.242658 -0.231537
0.0415742 0.243679 -0.231991
0.0405693 0.243658 -0.231505
0.0405729 0.244173 -0.231989
0.0405951 0.241691 -0.232568
0.0405987 0.242206 -0.233052
0.0415937 0.242712 -0.233023
0.0415876 0.243711 -0.232991
0.0405766 0.244689 -0.232473
0.0415814 0.244711 -0.232959
0.0405802 0.245205 -0.232957
0.0416071 0.242744 -0.234022
0.0406121 0.242238 -0.234052
0.041601 0.243743 -0.23399
0.0415948 0.244743 -0.233958
0.0405936 0.245237 -0.233956
0.0416205 0.242776 -0.235021
0.0406255 0.24227 -0.235051
0.0416143 0.243775 -0.23499
0.0416082 0.244775 -0.234958
0.0406069 0.245269 -0.234955
0.0416339 0.242808 -0.236021
0.0406389 0.242302 -0.23605
0.0416277 0.243807 -0.235989
0.0416216 0.244807 -0.235957
0.0406203 0.245301 -0.235955
0.0406425 0.242818 -0.236534
0.0406461 0.243333 -0.237018
0.0416411 0.243839 -0.236988
0.0416349 0.244838 -0.236957
0.0406337 0.245332 -0.236954
0.0416545 0.243871 -0.237988
0.0406595 0.243365 -0.238017
0.0416483 0.24487 -0.237956
0.0406471 0.245364 -0.237954
0.0406631 0.243881 -0.238501
0.0406667 0.244397 -0.238985
0.0416617 0.244902 -0.238955
0.0406605 0.245396 -0.238953
0.0406703 0.244913 -0.239469
0.0385452 0.241551 -0.228598
0.038555 0.241068 -0.229113
0.0395501 0.241573 -0.229084
0.0395439 0.242573 -0.229052
0.0385391 0.242551 -0.228566
0.0385427 0.243067 -0.22905
0.0395635 0.241605 -0.230083
0.0385684 0.2411 -0.230113
0.0395573 0.242605 -0.230052
0.0385463 0.243582 -0.229534
0.0395511 0.243604 -0.23002
0.0395449 0.244603 -0.229988
0.0385401 0.244582 -0.229502
0.0385437 0.245097 -0.229986
0.0385782 0.240616 -0.230629
0.038588 0.240132 -0.231144
0.039583 0.240638 -0.231115
0.0395768 0.241637 -0.231083
0.0395707 0.242636 -0.231051
0.0395645 0.243636 -0.231019
0.0395583 0.244635 -0.230987
0.0385571 0.245129 -0.230985
0.0395964 0.240669 -0.232114
0.0386014 0.240164 -0.232144
0.0395717 0.244667 -0.231987
0.0385705 0.245161 -0.231984
0.0396098 0.240701 -0.233113
0.0386147 0.240196 -0.233143
0.0396036 0.241701 -0.233082
0.0395789 0.245699 -0.232954
0.0385741 0.245677 -0.232468
0.0385777 0.246193 -0.232952
0.0396232 0.240733 -0.234113
0.0386281 0.240228 -0.234142
0.039617 0.241733 -0.234081
0.0395923 0.245731 -0.233954
0.0385911 0.246225 -0.233951
0.0396366 0.240765 -0.235112
0.0386415 0.24026 -0.235142
0.0396304 0.241765 -0.23508
0.0396057 0.245763 -0.234953
0.0386045 0.246257 -0.234951
0.03965 0.240797 -0.236112
0.0386549 0.240292 -0.236141
0.0396438 0.241797 -0.23608
0.0396191 0.245795 -0.235952
0.0386179 0.246289 -0.23595
0.0396634 0.240829 -0.237111
0.0386683 0.240324 -0.237141
0.0396572 0.241829 -0.237079
0.039651 0.242828 -0.237047
0.0396325 0.245826 -0.236952
0.0386313 0.24632 -0.236949
0.0386719 0.240839 -0.237624
0.0386755 0.241355 -0.238108
0.0396706 0.24186 -0.238079
0.0396644 0.24286 -0.238047
0.0396459 0.245858 -0.237951
0.0386447 0.246352 -0.237949
0.039684 0.241892 -0.239078
0.0386889 0.241387 -0.239107
0.0396778 0.242892 -0.239046
0.0396716 0.243891 -0.239014
0.0396593 0.24589 -0.238951
0.038658 0.246384 -0.238948
0.0386925 0.241903 -0.239591
0.0386863 0.242902 -0.239559
0.03869 0.243418 -0.240043
0.039685 0.243923 -0.240014
0.0396788 0.244923 -0.239982
0.0386776 0.245417 -0.23998
0.0386678 0.245901 -0.239464
0.0386936 0.243933 -0.240527
0.0386874 0.244933 -0.240495
0.0365489 0.24154 -0.228625
0.0365587 0.241056 -0.229141
0.0365526 0.242056 -0.229109
0.0375476 0.242561 -0.229079
0.0365685 0.240572 -0.229656
0.0365783 0.240089 -0.230172
0.0375734 0.240594 -0.230142
0.0365562 0.242571 -0.229593
0.03655 0.243571 -0.229561
0.0365536 0.244087 -0.230044
0.0375487 0.244592 -0.230015
0.0365917 0.240121 -0.231171
0.0365572 0.244602 -0.230528
0.0365608 0.245118 -0.231012
0.0366015 0.239637 -0.231687
0.0366113 0.239153 -0.232202
0.0376063 0.239658 -0.232173
0.0365742 0.24515 -0.232011
0.0376197 0.23969 -0.233172
0.0366246 0.239185 -0.233202
0.0375826 0.245687 -0.232981
0.0365876 0.245182 -0.233011
0.0376331 0.239722 -0.234172
0.036638 0.239217 -0.234201
0.0365912 0.245697 -0.233495
0.0365948 0.246213 -0.233978
0.0376465 0.239754 -0.235171
0.0366514 0.239249 -0.235201
0.0366082 0.246245 -0.234978
0.0376599 0.239786 -0.236171
0.0366648 0.239281 -0.2362
0.0366216 0.246277 -0.235977
0.0376733 0.239818 -0.23717
0.0366782 0.239313 -0.237199
0.036635 0.246309 -0.236977
0.0376866 0.23985 -0.238169
0.0366916 0.239345 -0.238199
0.0376805 0.24085 -0.238138
0.0366484 0.246341 -0.237976
0.0366952 0.23986 -0.238683
0.0366988 0.240376 -0.239166
0.0376939 0.240881 -0.239137
0.0366679 0.245373 -0.239007
0.0366582 0.245857 -0.238492
0.037663 0.245879 -0.238978
0.0367024 0.240892 -0.23965
0.036706 0.241407 -0.240134
0.0377011 0.241913 -0.240105
0.0376949 0.242912 -0.240073
0.0366875 0.244406 -0.240038
0.0366777 0.24489 -0.239523
0.0376826 0.244911 -0.240009
0.0367096 0.241923 -0.240618
0.0367035 0.242923 -0.240586
0.0366973 0.243922 -0.240554
0.0355575 0.24155 -0.229138
0.0345722 0.240561 -0.229683
0.034582 0.240077 -0.230199
0.0345661 0.24156 -0.229651
0.0345697 0.242076 -0.230135
0.0355647 0.242582 -0.230106
0.0355585 0.243581 -0.230074
0.0345918 0.239593 -0.230715
0.0346016 0.23911 -0.23123
0.0355966 0.239615 -0.231201
0.0345733 0.242592 -0.230619
0.0355719 0.243613 -0.231073
0.0345769 0.243108 -0.231103
0.0355658 0.244612 -0.231041
0.0346114 0.238626 -0.231746
0.0346211 0.238142 -0.232261
0.0356162 0.238648 -0.232232
0.0345805 0.243623 -0.231587
0.0355791 0.244644 -0.232041
0.0345841 0.244139 -0.23207
0.0356296 0.238679 -0.233231
0.0346345 0.238174 -0.233261
0.0355925 0.244676 -0.23304
0.0345975 0.244171 -0.23307
0.035643 0.238711 -0.234231
0.0346479 0.238206 -0.23426
0.0346011 0.244687 -0.233554
0.0346047 0.245202 -0.234037
0.0355998 0.245708 -0.234008
0.0346577 0.237722 -0.234776
0.0346675 0.237238 -0.235291
0.0356625 0.237744 -0.235262
0.0356564 0.238743 -0.23523
0.0356131 0.24574 -0.235007
0.0346181 0.245234 -0.235037
0.0356759 0.237776 -0.236261
0.0346809 0.23727 -0.236291
0.0356698 0.238775 -0.23623
0.0356265 0.245772 -0.236007
0.0346315 0.245266 -0.236036
0.0356893 0.237808 -0.237261
0.0346943 0.237302 -0.23729
0.0356831 0.238807 -0.237229
0.0356399 0.245803 -0.237006
0.0346449 0.245298 -0.237036
0.0346979 0.237818 -0.237774
0.0347015 0.238334 -0.238258
0.0356965 0.238839 -0.238228
0.0356533 0.245835 -0.238005
0.0346583 0.24533 -0.238035
0.0347051 0.238849 -0.238742
0.0347087 0.239365 -0.239225
0.0357038 0.239871 -0.239196
0.0346778 0.244362 -0.239066
0.034668 0.244846 -0.238551
0.0356729 0.244868 -0.239037
0.0347123 0.239881 -0.239709
0.0347159 0.240396 -0.240193
0.035711 0.240902 -0.240163
0.0346912 0.244394 -0.240066
0.0347195 0.240912 -0.240677
0.0347133 0.241912 -0.240645
0.0347072 0.242911 -0.240613
0.034701 0.243911 -0.240581
0.0325821 0.23955 -0.229742
0.0325919 0.239066 -0.230258
0.033587 0.239572 -0.230228
0.0335808 0.240571 -0.230197
0.0325857 0.240066 -0.230226
0.0335746 0.241571 -0.230165
0.0326017 0.238582 -0.230774
0.0326115 0.238099 -0.231289
0.0336065 0.238604 -0.23126
0.0325893 0.240581 -0.23071
0.0325832 0.241581 -0.230678
0.0325868 0.242097 -0.231162
0.0335818 0.242602 -0.231132
0.0326213 0.237615 -0.231805
0.032631 0.237131 -0.23232
0.0336261 0.237637 -0.232291
0.0325904 0.242612 -0.231646
0.032594 0.243128 -0.232129
0.033589 0.243633 -0.2321
0.0336395 0.237669 -0.23329
0.0326444 0.237163 -0.23332
0.0336024 0.243665 -0.233099
0.0326074 0.24316 -0.233129
0.0326542 0.236679 -0.233835
0.032664 0.236196 -0.234351
0.033659 0.236701 -0.234322
0.0336529 0.2377 -0.23429
0.032611 0.243676 -0.233613
0.0326146 0.244191 -0.234096
0.0336096 0.244697 -0.234067
0.0336724 0.236733 -0.235321
0.0326774 0.236227 -0.23535
0.033623 0.244729 -0.235066
0.032628 0.244223 -0.235096
0.0336858 0.236765 -0.23632
0.0326908 0.236259 -0.23635
0.0336364 0.244761 -0.236066
0.0326414 0.244255 -0.236095
0.0336992 0.236797 -0.23732
0.0327042 0.236291 -0.237349
0.0336498 0.244793 -0.237065
0.0326548 0.244287 -0.237094
0.0337126 0.236829 -0.238319
0.0327176 0.236323 -0.238349
0.0337064 0.237828 -0.238287
0.0326743 0.24332 -0.238126
0.0326645 0.243803 -0.23761
0.0336694 0.243825 -0.238096
0.0336632 0.244824 -0.238064
0.0327212 0.236839 -0.238832
0.0327248 0.237355 -0.239316
0.0337198 0.23786 -0.239287
0.0337136 0.23886 -0.239255
0.0336828 0.243857 -0.239096
0.0326877 0.243351 -0.239125
0.0327284 0.23787 -0.2398
0.032732 0.238386 -0.240284
0.033727 0.238891 -0.240254
0.0337209 0.239891 -0.240222
0.0327073 0.242384 -0.240156
0.0326975 0.242868 -0.239641
0.0337023 0.242889 -0.240127
0.0336962 0.243889 -0.240095
0.0327356 0.238902 -0.240768
0.0327392 0.239417 -0.241251
0.0337342 0.239923 -0.241222
0.0337281 0.240922 -0.24119
0.0327268 0.241416 -0.241188
0.0327171 0.2419 -0.240672
0.0327428 0.239933 -0.241735
0.0327366 0.240933 -0.241703
0.0315907 0.23956 -0.230256
0.0306178 0.236572 -0.230864
0.0306275 0.236088 -0.23138
0.0316226 0.236594 -0.23135
0.0316164 0.237593 -0.231319
0.0306116 0.237572 -0.230832
0.0306054 0.238571 -0.230801
0.0305992 0.23957 -0.230769
0.0306028 0.240086 -0.231253
0.0315979 0.240592 -0.231223
0.0315917 0.241591 -0.231191
0.0306373 0.235604 -0.231896
0.0306471 0.235121 -0.232411
0.0316422 0.235626 -0.232382
0.031636 0.236626 -0.23235
0.0306064 0.240602 -0.231736
0.0316051 0.241623 -0.232191
0.0306101 0.241118 -0.23222
0.0315989 0.242623 -0.232159
0.0316555 0.235658 -0.233381
0.0306605 0.235153 -0.233411
0.0316494 0.236658 -0.233349
0.0306137 0.241633 -0.232704
0.0316123 0.242654 -0.233158
0.0306173 0.242149 -0.233188
0.0316689 0.23569 -0.234381
0.0306739 0.235185 -0.23441
0.0316257 0.242686 -0.234158
0.0306307 0.242181 -0.234187
0.0316195 0.243686 -0.234126
0.0316823 0.235722 -0.23538
0.0306873 0.235216 -0.235409
0.0316391 0.242718 -0.235157
0.030644 0.242213 -0.235186
0.0316329 0.243718 -0.235125
0.0316957 0.235754 -0.236379
0.0307007 0.235248 -0.236409
0.0316525 0.24275 -0.236156
0.0306574 0.242245 -0.236186
0.0316463 0.24375 -0.236125
0.0317091 0.235786 -0.237379
0.030714 0.23528 -0.237408
0.0316659 0.242782 -0.237156
0.0306708 0.242277 -0.237185
0.0316597 0.243782 -0.237124
0.0317225 0.235818 -0.238378
0.0307274 0.235312 -0.238408
0.0316793 0.242814 -0.238155
0.0306842 0.242309 -0.238185
0.0317359 0.23585 -0.239378
0.0307408 0.235344 -0.239407
0.0317297 0.236849 -0.239346
0.0316927 0.242846 -0.239155
0.0306976 0.242341 -0.239184
0.0307444 0.23586 -0.239891
0.030748 0.236376 -0.240375
0.0317431 0.236881 -0.240345
0.0317369 0.237881 -0.240313
0.0307172 0.241373 -0.240215
0.0307074 0.241857 -0.2397
0.0317122 0.241878 -0.240186
0.0307517 0.236891 -0.240858
0.0307553 0.237407 -0.241342
0.0317503 0.237912 -0.241313
0.0317441 0.238912 -0.241281
0.0307429 0.239406 -0.241278
0.0307331 0.23989 -0.240763
0.031738 0.239911 -0.241249
0.030727 0.240889 -0.240731
0.0317318 0.240911 -0.241217
0.0307589 0.237923 -0.241826
0.0307527 0.238922 -0.241794
0.0310924 0.210321 -0.25471
0.0311022 0.209837 -0.255226
0.0320973 0.210342 -0.255197
0.0320911 0.211342 -0.255165
0.0310863 0.21132 -0.254679
0.0310899 0.211836 -0.255162
0.0311058 0.210352 -0.25571
0.0310997 0.211352 -0.255678
0.0286276 0.235561 -0.230923
0.0286374 0.235077 -0.231439
0.0296325 0.235583 -0.231409
0.0286215 0.236561 -0.230891
0.0286153 0.23756 -0.23086
0.0286091 0.23856 -0.230828
0.0286127 0.239075 -0.231312
0.0296078 0.239581 -0.231282
0.0286472 0.234594 -0.231955
0.028657 0.23411 -0.23247
0.029652 0.234615 -0.232441
0.0286163 0.239591 -0.231795
0.0286102 0.24059 -0.231763
0.0286138 0.241106 -0.232247
0.0296654 0.234647 -0.23344
0.0286704 0.234142 -0.23347
0.0296222 0.241643 -0.233217
0.0286272 0.241138 -0.233247
0.0296788 0.234679 -0.234439
0.0286838 0.234174 -0.234469
0.0286308 0.241654 -0.23373
0.0286344 0.242169 -0.234214
0.0286936 0.23369 -0.234985
0.0287033 0.233206 -0.2355
0.0296984 0.233712 -0.235471
0.0296922 0.234711 -0.235439
0.0286478 0.242201 -0.235214
0.0297118 0.233743 -0.23647
0.0287167 0.233238 -0.2365
0.0297056 0.234743 -0.236438
0.0286612 0.242233 -0.236213
0.0297252 0.233775 -0.23747
0.0287301 0.23327 -0.237499
0.029719 0.234775 -0.237438
0.0286807 0.241266 -0.237244
0.0286709 0.241749 -0.236729
0.0296758 0.241771 -0.237215
0.0297386 0.233807 -0.238469
0.0287435 0.233302 -0.238498
0.0297324 0.234807 -0.238437
0.0296892 0.241803 -0.238214
0.0286941 0.241298 -0.238244
0.0287471 0.233818 -0.238982
0.0287507 0.234333 -0.239466
0.0297458 0.234839 -0.239436
0.0287137 0.24033 -0.239275
0.0287039 0.240814 -0.238759
0.0297087 0.240836 -0.239245
0.0297026 0.241835 -0.239214
0.0297592 0.234871 -0.240436
0.0287641 0.234365 -0.240465
0.029753 0.23587 -0.240404
0.0297221 0.240867 -0.240245
0.0287271 0.240362 -0.240274
0.0297726 0.234903 -0.241435
0.0287775 0.234397 -0.241465
0.0297664 0.235902 -0.241403
0.0297602 0.236902 -0.241372
0.0287466 0.239394 -0.241306
0.0287368 0.239878 -0.24079
0.0287811 0.234913 -0.241949
0.0287847 0.235429 -0.242432
0.0297798 0.235934 -0.242403
0.0287688 0.236912 -0.241885
0.0287785 0.236428 -0.2424
0.0287626 0.237911 -0.241853
0.0287564 0.238911 -0.241821
0.0287883 0.235944 -0.242916
0.029023 0.211149 -0.249709
0.0290328 0.210665 -0.250224
0.0300279 0.211171 -0.250195
0.0290266 0.211665 -0.250192
0.0290611 0.207183 -0.250835
0.0290709 0.206699 -0.251351
0.030066 0.207205 -0.251322
0.0300598 0.208204 -0.25129
0.0290549 0.208182 -0.250804
0.0300536 0.209204 -0.251258
0.0290488 0.209182 -0.250772
0.0300474 0.210203 -0.251226
0.0290426 0.210181 -0.25074
0.0300413 0.211203 -0.251194
0.0290302 0.21218 -0.250676
0.0300351 0.212202 -0.251162
0.0300289 0.213201 -0.251131
0.0290241 0.21318 -0.250644
0.0290277 0.213695 -0.251128
0.0290869 0.205216 -0.251899
0.0290966 0.204732 -0.252414
0.0300917 0.205238 -0.252385
0.0300855 0.206237 -0.252353
0.0290807 0.206215 -0.251867
0.0300793 0.207237 -0.252321
0.0300732 0.208236 -0.252289
0.030067 0.209236 -0.252257
0.0300608 0.210235 -0.252225
0.0300547 0.211234 -0.252194
0.0300485 0.212234 -0.252162
0.0300423 0.213233 -0.25213
0.0290313 0.214211 -0.251612
0.0300361 0.214233 -0.252098
0.03003 0.215232 -0.252066
0.0290251 0.215211 -0.25158
0.0290287 0.215726 -0.252064
0.0291064 0.204248 -0.25293
0.0291162 0.203765 -0.253445
0.0301113 0.20427 -0.253416
0.0301051 0.20527 -0.253384
0.0300989 0.206269 -0.253352
0.0300927 0.207269 -0.25332
0.0300866 0.208268 -0.253289
0.0300804 0.209267 -0.253257
0.0300742 0.210267 -0.253225
0.030068 0.211266 -0.253193
0.0300619 0.212266 -0.253161
0.0300557 0.213265 -0.253129
0.0300495 0.214265 -0.253097
0.0300433 0.215264 -0.253066
0.0290323 0.216242 -0.252548
0.0300372 0.216264 -0.253034
0.0290359 0.216758 -0.253031
0.029126 0.203281 -0.253961
0.0291358 0.202797 -0.254477
0.0301308 0.203303 -0.254447
0.0301247 0.204302 -0.254415
0.0301185 0.205301 -0.254383
0.0301123 0.206301 -0.254352
0.0301061 0.2073 -0.25432
0.0301 0.2083 -0.254288
0.0300938 0.209299 -0.254256
0.0300876 0.210299 -0.254224
0.0300814 0.211298 -0.254192
0.0300753 0.212298 -0.254161
0.0300691 0.213297 -0.254129
0.0300629 0.214297 -0.254097
0.0300567 0.215296 -0.254065
0.0300506 0.216296 -0.254033
0.0290493 0.21679 -0.254031
0.0291456 0.202313 -0.254992
0.0291553 0.20183 -0.255508
0.0301504 0.202335 -0.255478
0.0301442 0.203334 -0.255447
0.030138 0.204334 -0.255415
0.0301319 0.205333 -0.255383
0.0301257 0.206333 -0.255351
0.0301195 0.207332 -0.255319
0.0301133 0.208332 -0.255287
0.0301072 0.209331 -0.255255
0.0300886 0.21233 -0.25516
0.0300825 0.213329 -0.255128
0.0300763 0.214329 -0.255096
0.0300701 0.215328 -0.255064
0.0300639 0.216328 -0.255033
0.0290529 0.217305 -0.254515
0.0300578 0.217327 -0.255001
0.0290565 0.217821 -0.254998
0.0291589 0.202345 -0.255992
0.0291626 0.202861 -0.256475
0.0301576 0.203366 -0.256446
0.0301514 0.204366 -0.256414
0.0301453 0.205365 -0.256382
0.0301391 0.206365 -0.25635
0.0301329 0.207364 -0.256319
0.0301267 0.208364 -0.256287
0.0301206 0.209363 -0.256255
0.0301144 0.210363 -0.256223
0.0301082 0.211362 -0.256191
0.030102 0.212362 -0.256159
0.0300959 0.213361 -0.256128
0.0300897 0.214361 -0.256096
0.0290787 0.215338 -0.255578
0.0290885 0.214855 -0.256093
0.0290725 0.216338 -0.255546
0.0290663 0.217337 -0.255514
0.0291662 0.203377 -0.256959
0.02916 0.204376 -0.256927
0.0291538 0.205376 -0.256896
0.0291476 0.206375 -0.256864
0.0291415 0.207375 -0.256832
0.0291353 0.208374 -0.2568
0.0291291 0.209373 -0.256768
0.0291229 0.210373 -0.256736
0.0291168 0.211372 -0.256704
0.0291106 0.212372 -0.256673
0.0291044 0.213371 -0.256641
0.0290982 0.214371 -0.256609
0.026763 0.205438 -0.227908
0.0267728 0.204954 -0.228424
0.0277679 0.205459 -0.228394
0.0277617 0.206459 -0.228362
0.0267569 0.206437 -0.227876
0.0277555 0.207458 -0.228331
0.0267507 0.207437 -0.227844
0.0277494 0.208458 -0.228299
0.0267445 0.208436 -0.227813
0.0277432 0.209457 -0.228267
0.0267383 0.209436 -0.227781
0.027737 0.210457 -0.228235
0.0267322 0.210435 -0.227749
0.0277308 0.211456 -0.228203
0.026726 0.211435 -0.227717
0.0277247 0.212456 -0.228171
0.0267198 0.212434 -0.227685
0.0277185 0.213455 -0.22814
0.0267136 0.213434 -0.227653
0.0277123 0.214455 -0.228108
0.0267075 0.214433 -0.227622
0.0277061 0.215454 -0.228076
0.0267013 0.215432 -0.22759
0.0277 0.216454 -0.228044
0.0266951 0.216432 -0.227558
0.0276938 0.217453 -0.228012
0.0266889 0.217431 -0.227526
0.0266926 0.217947 -0.22801
0.0268011 0.201472 -0.229035
0.0268109 0.200988 -0.229551
0.027806 0.201493 -0.229521
0.0277998 0.202493 -0.229489
0.026795 0.202471 -0.229003
0.0277936 0.203492 -0.229457
0.0267888 0.203471 -0.228971
0.0277874 0.204492 -0.229426
0.0267826 0.20447 -0.228939
0.0277813 0.205491 -0.229394
0.0277751 0.206491 -0.229362
0.0277689 0.20749 -0.22933
0.0277627 0.20849 -0.229298
0.0277566 0.209489 -0.229266
0.0277504 0.210489 -0.229235
0.0277442 0.211488 -0.229203
0.027738 0.212488 -0.229171
0.0277319 0.213487 -0.229139
0.0277257 0.214487 -0.229107
0.0277195 0.215486 -0.229075
0.0277133 0.216486 -0.229043
0.0277072 0.217485 -0.229012
0.0267059 0.217979 -0.229009
0.0278194 0.201525 -0.230521
0.0268243 0.20102 -0.23055
0.0278132 0.202525 -0.230489
0.027807 0.203524 -0.230457
0.0278008 0.204524 -0.230425
0.0277947 0.205523 -0.230393
0.0277885 0.206523 -0.230361
0.0277823 0.207522 -0.230329
0.0277761 0.208522 -0.230298
0.02777 0.209521 -0.230266
0.0277638 0.210521 -0.230234
0.0277576 0.21152 -0.230202
0.0277514 0.21252 -0.23017
0.0277453 0.213519 -0.230138
0.0277391 0.214519 -0.230107
0.0277329 0.215518 -0.230075
0.0277267 0.216517 -0.230043
0.0277206 0.217517 -0.230011
0.0267193 0.218011 -0.230009
0.0268279 0.201536 -0.231034
0.0268315 0.202051 -0.231518
0.0278266 0.202557 -0.231488
0.0278204 0.203556 -0.231456
0.0278142 0.204556 -0.231424
0.027808 0.205555 -0.231393
0.0278019 0.206555 -0.231361
0.0277957 0.207554 -0.231329
0.0277895 0.208554 -0.231297
0.0277833 0.209553 -0.231265
0.0277772 0.210553 -0.231233
0.027771 0.211552 -0.231201
0.0277648 0.212552 -0.23117
0.0277586 0.213551 -0.231138
0.0277525 0.21455 -0.231106
0.0277463 0.21555 -0.231074
0.0277401 0.216549 -0.231042
0.0267291 0.217527 -0.230524
0.0267389 0.217043 -0.23104
0.0268351 0.202567 -0.232001
0.0268289 0.203566 -0.231969
0.0268228 0.204566 -0.231938
0.0268166 0.205565 -0.231906
0.0268104 0.206565 -0.231874
0.026814 0.207081 -0.232358
0.0278091 0.207586 -0.232328
0.0278029 0.208586 -0.232296
0.0277967 0.209585 -0.232265
0.0277906 0.210584 -0.232233
0.0277844 0.211584 -0.232201
0.0277782 0.212583 -0.232169
0.027772 0.213583 -0.232137
0.026761 0.214561 -0.231619
0.0267708 0.214077 -0.232135
0.0267549 0.21556 -0.231587
0.0267487 0.21656 -0.231555
0.0266314 0.23555 -0.23095
0.0266411 0.235066 -0.231466
0.0266252 0.236549 -0.230919
0.026619 0.237549 -0.230887
0.0266226 0.238064 -0.231371
0.0276177 0.23857 -0.231341
0.0268176 0.207596 -0.232841
0.0268115 0.208596 -0.23281
0.0268053 0.209595 -0.232778
0.0267991 0.210595 -0.232746
0.0267929 0.211594 -0.232714
0.0267868 0.212594 -0.232682
0.0267806 0.213593 -0.23265
0.0266571 0.233583 -0.232014
0.0266669 0.233099 -0.232529
0.0276619 0.233604 -0.2325
0.0266509 0.234582 -0.231982
0.0266262 0.23858 -0.231854
0.0266201 0.239579 -0.231822
0.0266237 0.240095 -0.232306
0.0276187 0.240601 -0.232277
0.0276753 0.233636 -0.233499
0.0266803 0.233131 -0.233529
0.0266273 0.240611 -0.23279
0.0266309 0.241127 -0.233274
0.0266901 0.232647 -0.234044
0.0266998 0.232163 -0.23456
0.0276949 0.232669 -0.23453
0.0276887 0.233668 -0.234498
0.0276393 0.241664 -0.234244
0.0266443 0.241158 -0.234273
0.0277083 0.232701 -0.23553
0.0267132 0.232195 -0.235559
0.0276527 0.241696 -0.235243
0.0266577 0.24119 -0.235273
0.0277217 0.232733 -0.236529
0.0267266 0.232227 -0.236559
0.0276661 0.241728 -0.236242
0.026671 0.241222 -0.236272
0.0277351 0.232764 -0.237529
0.02674 0.232259 -0.237558
0.0266844 0.241254 -0.237271
0.0277485 0.232796 -0.238528
0.0267534 0.232291 -0.238557
0.026704 0.240287 -0.238303
0.0266942 0.24077 -0.237787
0.0276991 0.240792 -0.238273
0.0277618 0.232828 -0.239527
0.0267668 0.232323 -0.239557
0.0277557 0.233828 -0.239495
0.0267174 0.240319 -0.239302
0.0277752 0.23286 -0.240527
0.0267802 0.232355 -0.240556
0.0277691 0.23386 -0.240495
0.026737 0.239351 -0.240333
0.0267272 0.239835 -0.239818
0.027732 0.239857 -0.240304
0.0277886 0.232892 -0.241526
0.0267936 0.232387 -0.241556
0.0277824 0.233892 -0.241494
0.0267565 0.238384 -0.241365
0.0267467 0.238867 -0.240849
0.0277516 0.238889 -0.241335
0.0267972 0.232902 -0.242039
0.0268008 0.233418 -0.242523
0.0277958 0.233924 -0.242494
0.0277897 0.234923 -0.242462
0.0277773 0.236922 -0.242398
0.0267761 0.237416 -0.242396
0.0267663 0.2379 -0.24188
0.0268044 0.233934 -0.243007
0.0267982 0.234933 -0.242975
0.026792 0.235933 -0.242943
0.0267859 0.236932 -0.242911
0.0270113 0.207044 -0.246865
0.0270211 0.20656 -0.247381
0.0280161 0.207065 -0.247351
0.0280099 0.208065 -0.247319
0.0270051 0.208043 -0.246833
0.0280038 0.209064 -0.247287
0.0269989 0.209043 -0.246801
0.0279976 0.210064 -0.247256
0.0269928 0.210042 -0.246769
0.0279914 0.211063 -0.247224
0.0269866 0.211042 -0.246738
0.0279852 0.212063 -0.247192
0.0269804 0.212041 -0.246706
0.0279791 0.213062 -0.24716
0.0269742 0.213041 -0.246674
0.0269778 0.213556 -0.247158
0.027037 0.205077 -0.247928
0.0270468 0.204593 -0.248444
0.0280419 0.205098 -0.248414
0.0280357 0.206098 -0.248382
0.0270308 0.206076 -0.247896
0.0280295 0.207097 -0.24835
0.0280233 0.208097 -0.248319
0.0280172 0.209096 -0.248287
0.028011 0.210096 -0.248255
0.0280048 0.211095 -0.248223
0.0279986 0.212095 -0.248191
0.0279925 0.213094 -0.248159
0.0269814 0.214072 -0.247641
0.0279863 0.214094 -0.248128
0.0269851 0.214588 -0.248125
0.0270628 0.20311 -0.248991
0.0270725 0.202626 -0.249507
0.0280676 0.203131 -0.249477
0.0280614 0.204131 -0.249445
0.0270566 0.204109 -0.248959
0.0280552 0.20513 -0.249414
0.0280491 0.20613 -0.249382
0.0280429 0.207129 -0.24935
0.0280367 0.208129 -0.249318
0.0280305 0.209128 -0.249286
0.0280244 0.210128 -0.249254
0.0280182 0.211127 -0.249223
0.028012 0.212127 -0.249191
0.0280058 0.213126 -0.249159
0.0279997 0.214126 -0.249127
0.0269887 0.215103 -0.248609
0.0279935 0.215125 -0.249095
0.0269923 0.215619 -0.249093
0.0270823 0.202142 -0.250022
0.0270921 0.201658 -0.250538
0.0280872 0.202164 -0.250509
0.028081 0.203163 -0.250477
0.0280748 0.204163 -0.250445
0.0280686 0.205162 -0.250413
0.0280625 0.206162 -0.250381
0.0280563 0.207161 -0.250349
0.0280501 0.208161 -0.250317
0.0280439 0.20916 -0.250286
0.0280378 0.21016 -0.250254
0.0280254 0.212159 -0.25019
0.0280192 0.213158 -0.250158
0.0280131 0.214158 -0.250126
0.0280069 0.215157 -0.250095
0.0269959 0.216135 -0.249577
0.0280007 0.216157 -0.250063
0.0269995 0.216651 -0.25006
0.0281005 0.202196 -0.251508
0.0271055 0.20169 -0.251537
0.0280944 0.203195 -0.251476
0.0280882 0.204195 -0.251444
0.028082 0.205194 -0.251412
0.0280758 0.206194 -0.251381
0.0280265 0.214189 -0.251126
0.0280203 0.215189 -0.251094
0.0280141 0.216188 -0.251062
0.0270031 0.217166 -0.250544
0.0280079 0.217188 -0.25103
0.0270067 0.217682 -0.251028
0.0271153 0.201207 -0.252053
0.0271251 0.200723 -0.252569
0.0281201 0.201228 -0.252539
0.0281139 0.202228 -0.252507
0.0281078 0.203227 -0.252475
0.0281016 0.204227 -0.252444
0.0280275 0.21622 -0.252061
0.0280213 0.21722 -0.25203
0.0270103 0.218198 -0.251512
0.0280151 0.218219 -0.251998
0.0270139 0.218713 -0.251995
0.0271348 0.200239 -0.253084
0.0271446 0.199755 -0.2536
0.0281397 0.200261 -0.25357
0.0281335 0.20126 -0.253539
0.0281273 0.20226 -0.253507
0.0281212 0.203259 -0.253475
0.0280347 0.217252 -0.253029
0.0280285 0.218251 -0.252997
0.0270175 0.219229 -0.252479
0.0280224 0.219251 -0.252965
0.0270211 0.219745 -0.252963
0.0281531 0.200293 -0.25457
0.027158 0.199787 -0.254599
0.0281469 0.201292 -0.254538
0.0281407 0.202292 -0.254506
0.0280481 0.217284 -0.254028
0.0280419 0.218283 -0.253997
0.0280357 0.219283 -0.253965
0.0270247 0.22026 -0.253447
0.0280296 0.220282 -0.253933
0.0270283 0.220776 -0.253931
0.0271678 0.199303 -0.255115
0.0271776 0.19882 -0.255631
0.0281726 0.199325 -0.255601
0.0281665 0.200325 -0.255569
0.0281603 0.201324 -0.255537
0.0280553 0.218315 -0.254996
0.0280491 0.219315 -0.254964
0.028043 0.220314 -0.254932
0.027032 0.221292 -0.254414
0.0280368 0.221314 -0.2549
0.0270356 0.221808 -0.254898
0.028186 0.199357 -0.2566
0.027191 0.198852 -0.25663
0.0281798 0.200356 -0.256569
0.0281737 0.201356 -0.256537
0.0281675 0.202355 -0.256505
0.0280872 0.215349 -0.256091
0.0280811 0.216348 -0.256059
0.0280749 0.217348 -0.256027
0.0280687 0.218347 -0.255995
0.0280625 0.219346 -0.255964
0.0280564 0.220346 -0.255932
0.0270453 0.221324 -0.255414
0.0270551 0.22084 -0.255929
0.0271946 0.199367 -0.257114
0.0271884 0.200367 -0.257082
0.027192 0.200882 -0.257566
0.0281871 0.201388 -0.257536
0.0281809 0.202387 -0.257504
0.0281747 0.203387 -0.257472
0.0281685 0.204386 -0.257441
0.0281624 0.205386 -0.257409
0.0281562 0.206385 -0.257377
0.02815 0.207385 -0.257345
0.0281438 0.208384 -0.257313
0.0271426 0.208878 -0.257311
0.0271328 0.209362 -0.256795
0.0271267 0.210361 -0.256763
0.0271205 0.211361 -0.256732
0.0271143 0.21236 -0.2567
0.0271081 0.21336 -0.256668
0.027102 0.214359 -0.256636
0.0270958 0.215359 -0.256604
0.0270896 0.216358 -0.256572
0.0270834 0.217358 -0.25654
0.0270773 0.218357 -0.256509
0.0270711 0.219357 -0.256477
0.0270649 0.220356 -0.256445
0.0271956 0.201398 -0.258049
0.0271894 0.202398 -0.258018
0.0271833 0.203397 -0.257986
0.0271771 0.204397 -0.257954
0.0271709 0.205396 -0.257922
0.0271647 0.206395 -0.25789
0.0271586 0.207395 -0.257858
0.0271524 0.208394 -0.257827
0.024741 0.207393 -0.226872
0.0247508 0.206909 -0.227388
0.0257459 0.207415 -0.227358
0.0257397 0.208414 -0.227327
0.0247348 0.208393 -0.22684
0.0257335 0.209414 -0.227295
0.0247287 0.209392 -0.226809
0.0257273 0.210413 -0.227263
0.0247225 0.210392 -0.226777
0.0257212 0.211413 -0.227231
0.0247163 0.211391 -0.226745
0.025715 0.212412 -0.227199
0.0247101 0.212391 -0.226713
0.0257088 0.213412 -0.227167
0.024704 0.21339 -0.226681
0.0257026 0.214411 -0.227135
0.0246978 0.21439 -0.226649
0.0256965 0.215411 -0.227104
0.0246916 0.215389 -0.226617
0.0256903 0.21641 -0.227072
0.0246854 0.216389 -0.226586
0.0256841 0.21741 -0.22704
0.0246793 0.217388 -0.226554
0.0256779 0.218409 -0.227008
0.0246731 0.218387 -0.226522
0.0246767 0.218903 -0.227006
0.0248038 0.199429 -0.228126
0.0248136 0.198946 -0.228642
0.0258086 0.199451 -0.228613
0.0258025 0.200451 -0.228581
0.0247976 0.200429 -0.228095
0.0257963 0.20145 -0.228549
0.0247915 0.201428 -0.228063
0.0257901 0.20245 -0.228517
0.0247853 0.202428 -0.228031
0.0257839 0.203449 -0.228485
0.0247791 0.203427 -0.227999
0.0257778 0.204448 -0.228453
0.0247729 0.204427 -0.227967
0.0247668 0.205426 -0.227935
0.0247606 0.206426 -0.227903
0.0256913 0.218441 -0.228007
0.0246803 0.219419 -0.227489
0.0256851 0.219441 -0.227976
0.025679 0.22044 -0.227944
0.0246741 0.220418 -0.227458
0.0246777 0.220934 -0.227941
0.0248295 0.197462 -0.229189
0.0248393 0.196979 -0.229705
0.0258344 0.197484 -0.229676
0.0258282 0.198484 -0.229644
0.0248234 0.198462 -0.229158
0.025822 0.199483 -0.229612
0.0258159 0.200482 -0.22958
0.0257047 0.218473 -0.229007
0.0256985 0.219472 -0.228975
0.0256924 0.220472 -0.228943
0.0246911 0.220966 -0.228941
0.0258478 0.197516 -0.230675
0.0248527 0.197011 -0.230704
0.0258416 0.198515 -0.230643
0.0258354 0.199515 -0.230611
0.0258292 0.200514 -0.230579
0.0257181 0.218505 -0.230006
0.0257119 0.219504 -0.229974
0.0257058 0.220504 -0.229943
0.0247045 0.220998 -0.22994
0.0248563 0.197526 -0.231188
0.0248599 0.198042 -0.231672
0.025855 0.198547 -0.231643
0.0258488 0.199547 -0.231611
0.0258426 0.200546 -0.231579
0.0258365 0.201546 -0.231547
0.0257377 0.217537 -0.231037
0.0257315 0.218537 -0.231006
0.0257253 0.219536 -0.230974
0.0257191 0.220536 -0.230942
0.0247179 0.22103 -0.23094
0.0248635 0.198558 -0.232156
0.0248671 0.199073 -0.23264
0.0258622 0.199579 -0.23261
0.025856 0.200578 -0.232578
0.0258498 0.201578 -0.232546
0.0258437 0.202577 -0.232515
0.0258375 0.203577 -0.232483
0.0258313 0.204576 -0.232451
0.0258252 0.205576 -0.232419
0.025819 0.206575 -0.232387
0.0257696 0.214571 -0.232132
0.0257634 0.21557 -0.232101
0.0257572 0.21657 -0.232069
0.0257511 0.217569 -0.232037
0.0257449 0.218569 -0.232005
0.0257387 0.219568 -0.231973
0.0247277 0.220546 -0.231455
0.0247375 0.220062 -0.231971
0.0246351 0.235538 -0.230978
0.0246449 0.235054 -0.231493
0.0246387 0.236054 -0.231461
0.0256337 0.236559 -0.231432
0.0256276 0.237559 -0.2314
0.0248708 0.199589 -0.233123
0.0248744 0.200105 -0.233607
0.0258694 0.20061 -0.233578
0.0258632 0.20161 -0.233546
0.0258571 0.202609 -0.233514
0.0258509 0.203609 -0.233482
0.0258447 0.204608 -0.23345
0.0258385 0.205608 -0.233418
0.0258324 0.206607 -0.233387
0.0258262 0.207607 -0.233355
0.02582 0.208606 -0.233323
0.0258138 0.209605 -0.233291
0.0258077 0.210605 -0.233259
0.0258015 0.211604 -0.233227
0.0257953 0.212604 -0.233196