<VTKFile type="UnstructuredGrid" version="0.1" byte_order="BigEndian">
  <UnstructuredGrid>
    <Piece NumberOfPoints="14610" NumberOfCells="29220">
      <PointData>
        <DataArray type="Float64" Name="position" NumberOfComponents="3" format="ascii">
0.0411212 0.226253 -0.235649
0.0411229 0.225739 -0.236135
0.0421236 0.226234 -0.23614
0.0421286 0.227234 -0.236169
0.0411262 0.227253 -0.235677
0.0421336 0.228234 -0.236197
0.0411313 0.228252 -0.235705
0.0411379 0.228738 -0.236219
0.0411296 0.226225 -0.236649
0.0411363 0.226711 -0.237163
0.042137 0.227206 -0.237168
0.042142 0.228205 -0.237196
0.0411446 0.229224 -0.236733
0.042147 0.229205 -0.237224
0.0411513 0.22971 -0.237247
0.0421454 0.227178 -0.238168
0.0411447 0.226683 -0.238162
0.0421504 0.228177 -0.238196
0.0421554 0.229177 -0.238224
0.0411597 0.229681 -0.238247
0.0421538 0.227149 -0.239167
0.0411531 0.226654 -0.239162
0.0421588 0.228149 -0.239195
0.0421638 0.229149 -0.239224
0.0411681 0.229653 -0.239246
0.0421621 0.227121 -0.240167
0.0411614 0.226626 -0.240161
0.0421671 0.228121 -0.240195
0.0421721 0.22912 -0.240223
0.0411764 0.229625 -0.240246
0.0411681 0.227112 -0.240675
0.0411748 0.227598 -0.241189
0.0421755 0.228093 -0.241194
0.0421805 0.229092 -0.241223
0.0411848 0.229597 -0.241245
0.0421839 0.228064 -0.242194
0.0411832 0.227569 -0.242188
0.0421889 0.229064 -0.242222
0.0411932 0.229569 -0.242245
0.0411899 0.228055 -0.242702
0.0411966 0.228541 -0.243216
0.0421973 0.229036 -0.243222
0.0412016 0.22954 -0.243244
0.0412033 0.229027 -0.24373
0.0390997 0.226347 -0.232667
0.0391014 0.225833 -0.233153
0.0401021 0.226328 -0.233159
0.0401071 0.227328 -0.233187
0.0391047 0.227347 -0.232696
0.0391114 0.227833 -0.233209
0.0401105 0.2263 -0.234158
0.0391098 0.225805 -0.234153
0.0401155 0.2273 -0.234186
0.0391181 0.228318 -0.233723
0.0401205 0.228299 -0.234215
0.0401255 0.229299 -0.234243
0.0391231 0.229318 -0.233751
0.0391298 0.229804 -0.234265
0.0391115 0.225291 -0.234638
0.0391131 0.224777 -0.235124
0.0401138 0.225273 -0.23513
0.0401189 0.226272 -0.235158
0.0401239 0.227272 -0.235186
0.0401289 0.228271 -0.235214
0.0401339 0.229271 -0.235242
0.0391382 0.229775 -0.235265
0.0401222 0.225244 -0.236129
0.0391215 0.224749 -0.236124
0.0401422 0.229243 -0.236242
0.0391465 0.229747 -0.236264
0.0401306 0.225216 -0.237129
0.0391299 0.224721 -0.237123
0.0401356 0.226216 -0.237157
0.0401556 0.230214 -0.23727
0.0391532 0.230233 -0.236778
0.0391599 0.230719 -0.237292
0.040139 0.225188 -0.238128
0.0391383 0.224693 -0.238123
0.040144 0.226188 -0.238156
0.040164 0.230186 -0.238269
0.0391683 0.23069 -0.238292
0.0401473 0.22516 -0.239128
0.0391466 0.224665 -0.239122
0.0401524 0.226159 -0.239156
0.0401724 0.230158 -0.239269
0.0391767 0.230662 -0.239291
0.0401557 0.225132 -0.240127
0.039155 0.224637 -0.240122
0.0401607 0.226131 -0.240156
0.0401807 0.23013 -0.240268
0.039185 0.230634 -0.240291
0.0401641 0.225103 -0.241127
0.0391634 0.224608 -0.241121
0.0401691 0.226103 -0.241155
0.0401741 0.227103 -0.241183
0.0401891 0.230101 -0.241268
0.0391934 0.230606 -0.24129
0.0391701 0.225094 -0.241635
0.0391768 0.22558 -0.242149
0.0401775 0.226075 -0.242155
0.0401825 0.227074 -0.242183
0.0401975 0.230073 -0.242267
0.0392018 0.230578 -0.24229
0.0401859 0.226047 -0.243154
0.0391851 0.225552 -0.243149
0.0401909 0.227046 -0.243182
0.0401959 0.228046 -0.243211
0.0402059 0.230045 -0.243267
0.0392102 0.23055 -0.243289
0.0391918 0.226037 -0.243663
0.0391968 0.227037 -0.243691
0.0392035 0.227523 -0.244205
0.0402042 0.228018 -0.24421
0.0402092 0.229017 -0.244238
0.0392135 0.229522 -0.244261
0.0392119 0.230036 -0.243775
0.0392102 0.228008 -0.244718
0.0392152 0.229008 -0.244747
0.0371033 0.226357 -0.232684
0.037105 0.225843 -0.23317
0.03711 0.226843 -0.233198
0.0381107 0.227338 -0.233204
0.0371067 0.225329 -0.233656
0.0371084 0.224815 -0.234142
0.0381091 0.22531 -0.234147
0.0371167 0.227328 -0.233712
0.0371217 0.228328 -0.23374
0.0371284 0.228814 -0.234254
0.0381291 0.229309 -0.23426
0.0371167 0.224787 -0.235141
0.0371351 0.229299 -0.234768
0.0371418 0.229785 -0.235282
0.0371184 0.224273 -0.235627
0.0371201 0.223759 -0.236112
0.0381208 0.224254 -0.236118
0.0371501 0.229757 -0.236281
0.0381292 0.224226 -0.237118
0.0371285 0.223731 -0.237112
0.0381592 0.230224 -0.237287
0.0371585 0.229729 -0.237281
0.0381376 0.224198 -0.238117
0.0371369 0.223703 -0.238112
0.0371652 0.230214 -0.237795
0.0371719 0.2307 -0.238309
0.0381459 0.22417 -0.239117
0.0371452 0.223675 -0.239111
0.0371803 0.230672 -0.239308
0.0381543 0.224142 -0.240116
0.0371536 0.223646 -0.240111
0.0371886 0.230644 -0.240308
0.0381627 0.224113 -0.241116
0.037162 0.223618 -0.24111
0.037197 0.230615 -0.241307
0.0381711 0.224085 -0.242115
0.0371704 0.22359 -0.24211
0.0381761 0.225085 -0.242144
0.0372054 0.230587 -0.242307
0.037177 0.224076 -0.242624
0.0371837 0.224562 -0.243138
0.0381844 0.225057 -0.243143
0.0372088 0.229559 -0.243278
0.0372071 0.230073 -0.242793
0.0382095 0.230055 -0.243284
0.0371904 0.225047 -0.243651
0.0371971 0.225533 -0.244165
0.0381978 0.226028 -0.244171
0.0382028 0.227028 -0.244199
0.0372121 0.228532 -0.24425
0.0372104 0.229046 -0.243764
0.0382128 0.229027 -0.244255
0.0372038 0.226019 -0.244679
0.0372088 0.227018 -0.244707
0.0372138 0.228018 -0.244735
0.0361093 0.226348 -0.233193
0.0351103 0.225339 -0.233673
0.035112 0.224825 -0.234159
0.0351153 0.226338 -0.233701
0.035122 0.226824 -0.234215
0.0361227 0.227319 -0.23422
0.0361277 0.228319 -0.234249
0.0351136 0.224311 -0.234644
0.0351153 0.223797 -0.23513
0.036116 0.224292 -0.235135
0.0351287 0.22731 -0.234729
0.0361361 0.22829 -0.235248
0.0351353 0.227795 -0.235243
0.0361411 0.22929 -0.235276
0.035117 0.223283 -0.235616
0.0351187 0.222769 -0.236101
0.0361194 0.223264 -0.236107
0.035142 0.228281 -0.235756
0.0361494 0.229262 -0.236276
0.0351487 0.228767 -0.23627
0.0361278 0.223236 -0.237106
0.0351271 0.222741 -0.237101
0.0361578 0.229234 -0.237275
0.0351571 0.228739 -0.23727
0.0361362 0.223208 -0.238106
0.0351354 0.222713 -0.2381
0.0351638 0.229224 -0.237784
0.0351705 0.22971 -0.238297
0.0361712 0.230205 -0.238303
0.0351371 0.222199 -0.238586
0.0351388 0.221685 -0.239072
0.0361395 0.22218 -0.239077
0.0361445 0.22318 -0.239106
0.0361796 0.230177 -0.239303
0.0351789 0.229682 -0.239297
0.0361479 0.222152 -0.240077
0.0351472 0.221657 -0.240071
0.0361529 0.223151 -0.240105
0.0361879 0.230149 -0.240302
0.0351872 0.229654 -0.240297
0.0361563 0.222124 -0.241077
0.0351556 0.221629 -0.241071
0.0361613 0.223123 -0.241105
0.0361963 0.23012 -0.241302
0.0351956 0.229625 -0.241296
0.0351623 0.222114 -0.241585
0.0351689 0.2226 -0.242099
0.0361697 0.223095 -0.242104
0.0362047 0.230092 -0.242301
0.035204 0.229597 -0.242296
0.0351756 0.223086 -0.242613
0.0351823 0.223571 -0.243126
0.036183 0.224066 -0.243132
0.0352073 0.228569 -0.243267
0.0352057 0.229083 -0.242781
0.0362081 0.229064 -0.243273
0.035189 0.224057 -0.24364
0.0351957 0.224543 -0.244154
0.0361964 0.225038 -0.24416
0.0352157 0.228541 -0.244267
0.0352024 0.225029 -0.244668
0.0352074 0.226028 -0.244696
0.0352124 0.227028 -0.244724
0.0352174 0.228027 -0.244752
0.0331089 0.224349 -0.233662
0.0331105 0.223835 -0.234147
0.0341113 0.22433 -0.234153
0.0341163 0.225329 -0.234181
0.0331156 0.224834 -0.234175
0.0341213 0.226329 -0.234209
0.0331122 0.223321 -0.234633
0.0331139 0.222807 -0.235119
0.0341146 0.223302 -0.235124
0.0331222 0.22532 -0.234689
0.0331272 0.22632 -0.234717
0.0331339 0.226805 -0.235231
0.0341346 0.2273 -0.235237
0.0331156 0.222293 -0.235604
0.0331173 0.221779 -0.23609
0.034118 0.222274 -0.236096
0.0331406 0.227291 -0.235745
0.0331473 0.227777 -0.236259
0.034148 0.228272 -0.236265
0.0341264 0.222246 -0.237095
0.0331257 0.221751 -0.23709
0.0341564 0.228243 -0.237264
0.0331557 0.227748 -0.237259
0.0331274 0.221237 -0.237575
0.033129 0.220723 -0.238061
0.0341297 0.221218 -0.238067
0.0341347 0.222218 -0.238095
0.0331624 0.228234 -0.237772
0.0331691 0.22872 -0.238286
0.0341698 0.229215 -0.238292
0.0341381 0.22119 -0.239066
0.0331374 0.220695 -0.239061
0.0341781 0.229187 -0.239291
0.0331774 0.228692 -0.239286
0.0341465 0.221162 -0.240066
0.0331458 0.220667 -0.24006
0.0341865 0.229159 -0.240291
0.0331858 0.228663 -0.240285
0.0341549 0.221134 -0.241065
0.0331542 0.220639 -0.24106
0.0341949 0.22913 -0.241291
0.0331942 0.228635 -0.241285
0.0341632 0.221105 -0.242065
0.0331625 0.22061 -0.242059
0.0341682 0.222105 -0.242093
0.0331976 0.227608 -0.242256
0.0331959 0.228121 -0.241771
0.0341983 0.228103 -0.242262
0.0342033 0.229102 -0.24229
0.0331692 0.221096 -0.242573
0.0331759 0.221582 -0.243087
0.0341766 0.222077 -0.243093
0.0341816 0.223076 -0.243121
0.0342066 0.228074 -0.243262
0.0332059 0.227579 -0.243256
0.0331826 0.222067 -0.243601
0.0331893 0.222553 -0.244115
0.03419 0.223048 -0.24412
0.034195 0.224048 -0.244149
0.0332093 0.226552 -0.244227
0.0332076 0.227065 -0.243742
0.03421 0.227047 -0.244233
0.034215 0.228046 -0.244261
0.033196 0.223039 -0.244629
0.0332027 0.223525 -0.245143
0.0342034 0.22402 -0.245148
0.0342084 0.225019 -0.245176
0.0332127 0.225524 -0.245199
0.033211 0.226038 -0.244713
0.0332094 0.22401 -0.245656
0.0332144 0.22501 -0.245685
0.0321148 0.224339 -0.23417
0.0311058 0.221331 -0.234594
0.0311075 0.220817 -0.235079
0.0321082 0.221312 -0.235085
0.0321132 0.222312 -0.235113
0.0311108 0.222331 -0.234622
0.0311158 0.22333 -0.23465
0.0311208 0.22433 -0.234678
0.0311275 0.224816 -0.235192
0.0321282 0.225311 -0.235198
0.0321332 0.22631 -0.235226
0.0311092 0.220303 -0.235565
0.0311109 0.219789 -0.236051
0.0321116 0.220284 -0.236056
0.0321166 0.221284 -0.236085
0.0311342 0.225301 -0.235706
0.0321416 0.226282 -0.236225
0.0311409 0.225787 -0.23622
0.0321466 0.227282 -0.236253
0.03212 0.220256 -0.237056
0.0311193 0.219761 -0.23705
0.032125 0.221256 -0.237084
0.0311476 0.226273 -0.236734
0.032155 0.227253 -0.237253
0.0311543 0.226758 -0.237247
0.0321283 0.220228 -0.238056
0.0311276 0.219733 -0.23805
0.0321634 0.227225 -0.238253
0.0311627 0.22673 -0.238247
0.0321684 0.228225 -0.238281
0.0321367 0.2202 -0.239055
0.031136 0.219705 -0.23905
0.0321717 0.227197 -0.239252
0.031171 0.226702 -0.239247
0.0321767 0.228197 -0.23928
0.0321451 0.220172 -0.240055
0.0311444 0.219677 -0.240049
0.0321801 0.227169 -0.240252
0.0311794 0.226674 -0.240246
0.0321851 0.228168 -0.24028
0.0321535 0.220144 -0.241054
0.0311528 0.219648 -0.241049
0.0321885 0.227141 -0.241251
0.0311878 0.226646 -0.241246
0.0321935 0.22814 -0.241279
0.0321618 0.220115 -0.242054
0.0311611 0.21962 -0.242048
0.0321969 0.227112 -0.242251
0.0311962 0.226617 -0.242245
0.0321702 0.220087 -0.243053
0.0311695 0.219592 -0.243048
0.0321752 0.221087 -0.243082
0.0322052 0.227084 -0.24325
0.0312045 0.226589 -0.243245
0.0311762 0.220078 -0.243562
0.0311829 0.220564 -0.244076
0.0321836 0.221059 -0.244081
0.0321886 0.222058 -0.244109
0.0312079 0.225561 -0.244216
0.0312062 0.226075 -0.243731
0.0322086 0.226057 -0.244222
0.0311896 0.221049 -0.244589
0.0311963 0.221535 -0.245103
0.032197 0.22203 -0.245109
0.032202 0.22303 -0.245137
0.0312063 0.223534 -0.24516
0.0312046 0.224048 -0.244674
0.032207 0.224029 -0.245165
0.0312096 0.225048 -0.244702
0.032212 0.225029 -0.245193
0.031203 0.222021 -0.245617
0.031208 0.22302 -0.245645
0.0311633 0.193694 -0.256824
0.031165 0.19318 -0.25731
0.0321657 0.193675 -0.257315
0.0321707 0.194675 -0.257343
0.0311683 0.194693 -0.256852
0.031175 0.195179 -0.257366
0.0311717 0.193666 -0.257823
0.0311767 0.194665 -0.257852
0.0291044 0.220341 -0.234583
0.0291061 0.219827 -0.235068
0.0301068 0.220322 -0.235074
0.0291094 0.221341 -0.234611
0.0291144 0.22234 -0.234639
0.0291194 0.22334 -0.234667
0.0291261 0.223825 -0.235181
0.0301268 0.224321 -0.235186
0.0291078 0.219313 -0.235554
0.0291095 0.218799 -0.23604
0.0301102 0.219294 -0.236045
0.0291328 0.224311 -0.235695
0.0291378 0.225311 -0.235723
0.0291445 0.225796 -0.236237
0.0301185 0.219266 -0.237045
0.0291178 0.218771 -0.237039
0.0301536 0.226263 -0.237242
0.0291529 0.225768 -0.237236
0.0301269 0.219238 -0.238044
0.0291262 0.218743 -0.238039
0.0291596 0.226254 -0.23775
0.0291662 0.22674 -0.238264
0.0291279 0.218229 -0.238525
0.0291296 0.217715 -0.23901
0.0301303 0.21821 -0.239016
0.0301353 0.21921 -0.239044
0.0291746 0.226712 -0.239264
0.0301387 0.218182 -0.240015
0.029138 0.217687 -0.24001
0.0301437 0.219182 -0.240044
0.029183 0.226683 -0.240263
0.030147 0.218154 -0.241015
0.0291463 0.217659 -0.241009
0.030152 0.219153 -0.241043
0.0291864 0.225656 -0.241235
0.0291847 0.226169 -0.240749
0.0301871 0.226151 -0.24124
0.0301554 0.218126 -0.242015
0.0291547 0.217631 -0.242009
0.0301604 0.219125 -0.242043
0.0301955 0.226122 -0.24224
0.0291947 0.225627 -0.242234
0.0291614 0.218116 -0.242523
0.0291681 0.218602 -0.243037
0.0301688 0.219097 -0.243042
0.0291981 0.2246 -0.243206
0.0291964 0.225113 -0.24272
0.0301988 0.225095 -0.243211
0.0302038 0.226094 -0.243239
0.0301772 0.219069 -0.244042
0.0291765 0.218574 -0.244036
0.0301822 0.220068 -0.24407
0.0302072 0.225066 -0.244211
0.0292065 0.224571 -0.244205
0.0301855 0.219041 -0.245041
0.0291848 0.218546 -0.245036
0.0301906 0.22004 -0.24507
0.0301956 0.22104 -0.245098
0.0292099 0.223544 -0.245177
0.0292082 0.224058 -0.244691
0.0291915 0.219031 -0.24555
0.0291982 0.219517 -0.246064
0.0301989 0.220012 -0.246069
0.0292015 0.221031 -0.245606
0.0292032 0.220517 -0.246092
0.0292065 0.22203 -0.245634
0.0292115 0.22303 -0.245662
0.0292049 0.220003 -0.246577
0.0291301 0.194844 -0.251871
0.0291317 0.19433 -0.252357
0.0301325 0.194825 -0.252363
0.0291368 0.19533 -0.252385
0.0291184 0.190817 -0.252758
0.0291201 0.190303 -0.253244
0.0301208 0.190798 -0.25325
0.0301258 0.191798 -0.253278
0.0291234 0.191817 -0.252786
0.0301308 0.192798 -0.253306
0.0291284 0.192817 -0.252815
0.0301358 0.193797 -0.253334
0.0291334 0.193816 -0.252843
0.0301408 0.194797 -0.253362
0.0291434 0.195815 -0.252899
0.0301458 0.195796 -0.25339
0.0301508 0.196796 -0.253418
0.0291484 0.196815 -0.252927
0.0291551 0.197301 -0.253441
0.0291168 0.18879 -0.253702
0.0291185 0.188276 -0.254187
0.0301192 0.188771 -0.254193
0.0301242 0.189771 -0.254221
0.0291218 0.18979 -0.25373
0.0301292 0.19077 -0.254249
0.0301342 0.19177 -0.254277
0.0301392 0.192769 -0.254305
0.0301442 0.193769 -0.254334
0.0301492 0.194769 -0.254362
0.0301542 0.195768 -0.25439
0.0301592 0.196768 -0.254418
0.0291618 0.197786 -0.253955
0.0301642 0.197767 -0.254446
0.0301692 0.198767 -0.254474
0.0291668 0.198786 -0.253983
0.0291735 0.199272 -0.254497
0.0291202 0.187762 -0.254673
0.0291218 0.187248 -0.255159
0.0301226 0.187743 -0.255164
0.0301276 0.188743 -0.255192
0.0301326 0.189743 -0.25522
0.0301376 0.190742 -0.255249
0.0301426 0.191742 -0.255277
0.0301476 0.192741 -0.255305
0.0301526 0.193741 -0.255333
0.0301576 0.19474 -0.255361
0.0301626 0.19574 -0.255389
0.0301676 0.19674 -0.255418
0.0301726 0.197739 -0.255446
0.0301776 0.198739 -0.255474
0.0291802 0.199757 -0.255011
0.0301826 0.199738 -0.255502
0.0291869 0.200243 -0.255525
0.0291235 0.186734 -0.255644
0.0291252 0.186221 -0.25613
0.0301259 0.186716 -0.256136
0.0301309 0.187715 -0.256164
0.0301359 0.188715 -0.256192
0.0301409 0.189714 -0.25622
0.0301459 0.190714 -0.256248
0.0301509 0.191714 -0.256276
0.0301559 0.192713 -0.256304
0.030161 0.193713 -0.256333
0.030166 0.194712 -0.256361
0.030171 0.195712 -0.256389
0.030176 0.196711 -0.256417
0.030181 0.197711 -0.256445
0.030186 0.198711 -0.256473
0.030191 0.19971 -0.256502
0.0291953 0.200215 -0.256524
0.0291269 0.185707 -0.256616
0.0291286 0.185193 -0.257101
0.0301293 0.185688 -0.257107
0.0301343 0.186687 -0.257135
0.0301393 0.187687 -0.257163
0.0301443 0.188687 -0.257191
0.0301493 0.189686 -0.25722
0.0301543 0.190686 -0.257248
0.0301593 0.191685 -0.257276
0.0301643 0.192685 -0.257304
0.0301793 0.195684 -0.257388
0.0301843 0.196683 -0.257417
0.0301893 0.197683 -0.257445
0.0301943 0.198682 -0.257473
0.0301994 0.199682 -0.257501
0.029202 0.2007 -0.257038
0.0302044 0.200682 -0.257529
0.0292087 0.201186 -0.257552
0.0291353 0.185678 -0.257615
0.029142 0.186164 -0.258129
0.0301427 0.186659 -0.258135
0.0301477 0.187659 -0.258163
0.0301527 0.188658 -0.258191
0.0301577 0.189658 -0.258219
0.0301627 0.190658 -0.258247
0.0301677 0.191657 -0.258275
0.0301727 0.192657 -0.258304
0.0301777 0.193656 -0.258332
0.0301827 0.194656 -0.25836
0.0301877 0.195655 -0.258388
0.0301927 0.196655 -0.258416
0.0301977 0.197655 -0.258444
0.0292003 0.198673 -0.257981
0.029202 0.198159 -0.258467
0.0292053 0.199673 -0.258009
0.0292103 0.200672 -0.258038
0.0291487 0.18665 -0.258643
0.0291537 0.187649 -0.258671
0.0291587 0.188649 -0.258699
0.0291637 0.189649 -0.258727
0.0291687 0.190648 -0.258756
0.0291737 0.191648 -0.258784
0.0291787 0.192647 -0.258812
0.0291837 0.193647 -0.25884
0.0291887 0.194647 -0.258868
0.0291937 0.195646 -0.258896
0.0291987 0.196646 -0.258924
0.0292037 0.197645 -0.258953
0.0269244 0.190476 -0.229757
0.0269261 0.189962 -0.230243
0.0279268 0.190457 -0.230248
0.0279318 0.191456 -0.230276
0.0269294 0.191475 -0.229785
0.0279368 0.192456 -0.230305
0.0269344 0.192475 -0.229813
0.0279418 0.193455 -0.230333
0.0269394 0.193474 -0.229841
0.0279468 0.194455 -0.230361
0.0269444 0.194474 -0.22987
0.0279518 0.195455 -0.230389
0.0269494 0.195473 -0.229898
0.0279568 0.196454 -0.230417
0.0269544 0.196473 -0.229926
0.0279618 0.197454 -0.230445
0.0269594 0.197473 -0.229954
0.0279668 0.198453 -0.230473
0.0269644 0.198472 -0.229982
0.0279718 0.199453 -0.230502
0.0269694 0.199472 -0.23001
0.0279768 0.200453 -0.23053
0.0269744 0.200471 -0.230038
0.0279818 0.201452 -0.230558
0.0269794 0.201471 -0.230067
0.0279868 0.202452 -0.230586
0.0269844 0.202471 -0.230095
0.0269911 0.202956 -0.230609
0.0269127 0.186449 -0.230644
0.0269144 0.185935 -0.23113
0.0279151 0.18643 -0.231135
0.0279201 0.18743 -0.231163
0.0269177 0.187449 -0.230672
0.0279251 0.188429 -0.231192
0.0269228 0.188448 -0.2307
0.0279301 0.189429 -0.23122
0.0269278 0.189448 -0.230728
0.0279352 0.190428 -0.231248
0.0279402 0.191428 -0.231276
0.0279452 0.192428 -0.231304
0.0279502 0.193427 -0.231332
0.0279552 0.194427 -0.23136
0.0279602 0.195426 -0.231389
0.0279652 0.196426 -0.231417
0.0279702 0.197426 -0.231445
0.0279752 0.198425 -0.231473
0.0279802 0.199425 -0.231501
0.0279852 0.200424 -0.231529
0.0279902 0.201424 -0.231557
0.0279952 0.202424 -0.231586
0.0269995 0.202928 -0.231608
0.0279235 0.186402 -0.232135
0.0269228 0.185907 -0.232129
0.0279285 0.187402 -0.232163
0.0279335 0.188401 -0.232191
0.0279385 0.189401 -0.232219
0.0279435 0.1904 -0.232247
0.0279485 0.1914 -0.232276
0.0279535 0.192399 -0.232304
0.0279585 0.193399 -0.232332
0.0279635 0.194399 -0.23236
0.0279685 0.195398 -0.232388
0.0279735 0.196398 -0.232416
0.0279786 0.197397 -0.232444
0.0279836 0.198397 -0.232473
0.0279886 0.199397 -0.232501
0.0279936 0.200396 -0.232529
0.0279986 0.201396 -0.232557
0.0280036 0.202395 -0.232585
0.0270079 0.2029 -0.232608
0.0269295 0.186393 -0.232643
0.0269362 0.186878 -0.233157
0.0279369 0.187373 -0.233163
0.0279419 0.188373 -0.233191
0.0279469 0.189373 -0.233219
0.0279519 0.190372 -0.233247
0.0279569 0.191372 -0.233275
0.0279619 0.192371 -0.233303
0.0279669 0.193371 -0.233331
0.0279719 0.19437 -0.23336
0.0279769 0.19537 -0.233388
0.0279819 0.19637 -0.233416
0.0279869 0.197369 -0.233444
0.0279919 0.198369 -0.233472
0.0279969 0.199368 -0.2335
0.0280019 0.200368 -0.233528
0.0280069 0.201368 -0.233557
0.0270096 0.202386 -0.233093
0.0270112 0.201872 -0.233579
0.0269429 0.187364 -0.233671
0.0269479 0.188364 -0.233699
0.0269529 0.189363 -0.233727
0.0269579 0.190363 -0.233755
0.0269629 0.191362 -0.233783
0.0269696 0.191848 -0.234297
0.0279703 0.192343 -0.234303
0.0279753 0.193343 -0.234331
0.0279803 0.194342 -0.234359
0.0279853 0.195342 -0.234387
0.0279903 0.196341 -0.234415
0.0279953 0.197341 -0.234444
0.0280003 0.198341 -0.234472
0.0270029 0.199359 -0.234009
0.0270046 0.198845 -0.234494
0.0270079 0.200359 -0.234037
0.0270129 0.201358 -0.234065
0.027108 0.220351 -0.2346
0.0271097 0.219837 -0.235085
0.027113 0.22135 -0.234628
0.027118 0.22235 -0.234656
0.0271247 0.222835 -0.23517
0.0281254 0.22333 -0.235175
0.0269763 0.192334 -0.234811
0.0269813 0.193333 -0.234839
0.0269863 0.194333 -0.234867
0.0269913 0.195333 -0.234896
0.0269963 0.196332 -0.234924
0.0270013 0.197332 -0.234952
0.0270063 0.198331 -0.23498
0.0271064 0.218323 -0.235543
0.0271081 0.217809 -0.236029
0.0281088 0.218304 -0.236034
0.0271114 0.219323 -0.235571
0.0271314 0.223321 -0.235684
0.0271364 0.224321 -0.235712
0.0271431 0.224806 -0.236226
0.0281438 0.225301 -0.236231
0.0281171 0.218276 -0.237034
0.0271164 0.217781 -0.237028
0.0271498 0.225292 -0.236739
0.0271565 0.225778 -0.237253
0.0271181 0.217267 -0.237514
0.0271198 0.216753 -0.238
0.0281205 0.217248 -0.238005
0.0281255 0.218248 -0.238033
0.0281655 0.226245 -0.238258
0.0271648 0.22575 -0.238253
0.0281289 0.21722 -0.239005
0.0271282 0.216725 -0.238999
0.0281739 0.226216 -0.239258
0.0271732 0.225721 -0.239252
0.0281373 0.217192 -0.240004
0.0271366 0.216697 -0.239999
0.0281823 0.226188 -0.240258
0.0271816 0.225693 -0.240252
0.0281456 0.217164 -0.241004
0.0271449 0.216669 -0.240998
0.02719 0.225665 -0.241252
0.028154 0.217136 -0.242003
0.0271533 0.216641 -0.241998
0.0271933 0.224637 -0.242223
0.0271917 0.225151 -0.241737
0.028194 0.225132 -0.242229
0.0281624 0.217107 -0.243003
0.0271617 0.216612 -0.242997
0.0281674 0.218107 -0.243031
0.0272017 0.224609 -0.243223
0.0281708 0.217079 -0.244003
0.0271701 0.216584 -0.243997
0.0281758 0.218079 -0.244031
0.0272051 0.223581 -0.244194
0.0272034 0.224095 -0.243708
0.0282058 0.224076 -0.2442
0.0281791 0.217051 -0.245002
0.0271784 0.216556 -0.244997
0.0281841 0.218051 -0.24503
0.0272085 0.222554 -0.245165
0.0272068 0.223067 -0.24468
0.0282092 0.223049 -0.245171
0.0271851 0.217042 -0.24551
0.0271918 0.217527 -0.246024
0.0281925 0.218022 -0.24603
0.0281975 0.219022 -0.246058
0.0282075 0.221021 -0.246114
0.0272118 0.221526 -0.246137
0.0272101 0.22204 -0.245651
0.0271985 0.218013 -0.246538
0.0272035 0.219013 -0.246566
0.0272085 0.220012 -0.246594
0.0272135 0.221012 -0.246623
0.0270885 0.19094 -0.248777
0.0270902 0.190426 -0.249263
0.0280909 0.190921 -0.249268
0.0280959 0.19192 -0.249296
0.0270935 0.191939 -0.248805
0.0281009 0.19292 -0.249325
0.0270985 0.192939 -0.248833
0.0281059 0.19392 -0.249353
0.0271035 0.193938 -0.248861
0.0281109 0.194919 -0.249381
0.0271085 0.194938 -0.24889
0.0281159 0.195919 -0.249409
0.0271135 0.195938 -0.248918
0.0281209 0.196918 -0.249437
0.0271185 0.196937 -0.248946
0.0271252 0.197423 -0.24946
0.0270869 0.188912 -0.24972
0.0270886 0.188398 -0.250206
0.0280893 0.188893 -0.250212
0.0280943 0.189893 -0.25024
0.0270919 0.189912 -0.249748
0.0280993 0.190893 -0.250268
0.0281043 0.191892 -0.250296
0.0281093 0.192892 -0.250324
0.0281143 0.193891 -0.250352
0.0281193 0.194891 -0.25038
0.0281243 0.19589 -0.250409
0.0281293 0.19689 -0.250437
0.0271319 0.197909 -0.249974
0.0281343 0.19789 -0.250465
0.0271386 0.198394 -0.250487
0.0270853 0.186885 -0.250664
0.0270869 0.186371 -0.251149
0.0280876 0.186866 -0.251155
0.0280926 0.187866 -0.251183
0.0270903 0.187884 -0.250692
0.0280976 0.188865 -0.251211
0.0281027 0.189865 -0.251239
0.0281077 0.190864 -0.251267
0.0281127 0.191864 -0.251296
0.0281177 0.192864 -0.251324
0.0281227 0.193863 -0.251352
0.0281277 0.194863 -0.25138
0.0281327 0.195862 -0.251408
0.0281377 0.196862 -0.251436
0.0281427 0.197861 -0.251464
0.0271453 0.19888 -0.251001
0.0281477 0.198861 -0.251493
0.027152 0.199366 -0.251515
0.0270886 0.185857 -0.251635
0.0270903 0.185343 -0.252121
0.028091 0.185838 -0.252126
0.028096 0.186838 -0.252154
0.028101 0.187837 -0.252183
0.028106 0.188837 -0.252211
0.028111 0.189837 -0.252239
0.028116 0.190836 -0.252267
0.028121 0.191836 -0.252295
0.028126 0.192835 -0.252323
0.028131 0.193835 -0.252351
0.0281411 0.195834 -0.252408
0.0281461 0.196834 -0.252436
0.0281511 0.197833 -0.252464
0.0281561 0.198833 -0.252492
0.0271587 0.199851 -0.252029
0.0281611 0.199832 -0.25252
0.0271654 0.200337 -0.252543
0.0280994 0.18581 -0.253126
0.0270987 0.185315 -0.25312
0.0281044 0.18681 -0.253154
0.0281094 0.187809 -0.253182
0.0281144 0.188809 -0.25321
0.0281194 0.189808 -0.253238
0.0281594 0.197805 -0.253464
0.0281644 0.198805 -0.253492
0.0281694 0.199804 -0.25352
0.0271721 0.200823 -0.253057
0.0281744 0.200804 -0.253548
0.0271787 0.201308 -0.253571
0.0271004 0.184801 -0.253606
0.0271021 0.184287 -0.254092
0.0281028 0.184782 -0.254097
0.0281078 0.185782 -0.254125
0.0281128 0.186781 -0.254153
0.0281178 0.187781 -0.254182
0.0281778 0.199776 -0.254519
0.0281828 0.200776 -0.254548
0.0271854 0.201794 -0.254084
0.0281878 0.201775 -0.254576
0.0271921 0.20228 -0.254598
0.0271037 0.183773 -0.254577
0.0271054 0.183259 -0.255063
0.0281061 0.183754 -0.255069
0.0281111 0.184754 -0.255097
0.0281161 0.185754 -0.255125
0.0281211 0.186753 -0.255153
0.0281912 0.200748 -0.255547
0.0281962 0.201747 -0.255575
0.0271988 0.202766 -0.255112
0.0282012 0.202747 -0.255603
0.0272055 0.203251 -0.255626
0.0281145 0.183726 -0.256068
0.0271138 0.183231 -0.256063
0.0281195 0.184726 -0.256096
0.0281245 0.185725 -0.256124
0.0281996 0.200719 -0.256547
0.0282046 0.201719 -0.256575
0.0282096 0.202719 -0.256603
0.0272122 0.203737 -0.25614
0.0282146 0.203718 -0.256631
0.0272189 0.204223 -0.256654
0.0271155 0.182717 -0.256548
0.0271172 0.182203 -0.257034
0.0281179 0.182699 -0.25704
0.0281229 0.183698 -0.257068
0.0281279 0.184698 -0.257096
0.028213 0.201691 -0.257574
0.028218 0.20269 -0.257603
0.028223 0.20369 -0.257631
0.0272256 0.204708 -0.257168
0.028228 0.20469 -0.257659
0.0272323 0.205194 -0.257681
0.0281263 0.18267 -0.258039
0.0271255 0.182175 -0.258034
0.0281313 0.18367 -0.258067
0.0281363 0.18467 -0.258095
0.0281413 0.185669 -0.258124
0.0282063 0.198664 -0.258489
0.0282113 0.199663 -0.258518
0.0282163 0.200663 -0.258546
0.0282213 0.201663 -0.258574
0.0282263 0.202662 -0.258602
0.0282313 0.203662 -0.25863
0.0272339 0.20468 -0.258167
0.0272356 0.204166 -0.258653
0.0271322 0.182661 -0.258547
0.0271372 0.183661 -0.258576
0.0271439 0.184146 -0.259089
0.0281446 0.184641 -0.259095
0.0281496 0.185641 -0.259123
0.0281546 0.186641 -0.259151
0.0281596 0.18764 -0.259179
0.0281646 0.18864 -0.259208
0.0281697 0.189639 -0.259236
0.0281747 0.190639 -0.259264
0.0281797 0.191638 -0.259292
0.027184 0.192143 -0.259315
0.0271823 0.192657 -0.258829
0.0271873 0.193656 -0.258857
0.0271923 0.194656 -0.258885
0.0271973 0.195656 -0.258913
0.0272023 0.196655 -0.258941
0.0272073 0.197655 -0.25897
0.0272123 0.198654 -0.258998
0.0272173 0.199654 -0.259026
0.0272223 0.200654 -0.259054
0.0272273 0.201653 -0.259082
0.0272323 0.202653 -0.25911
0.0272373 0.203652 -0.259138
0.0271506 0.184632 -0.259603
0.0271556 0.185632 -0.259631
0.0271606 0.186631 -0.25966
0.0271656 0.187631 -0.259688
0.0271706 0.18863 -0.259716
0.0271756 0.18963 -0.259744
0.0271806 0.19063 -0.259772
0.0271856 0.191629 -0.2598
0.0249296 0.192512 -0.228831
0.0249313 0.191999 -0.229316
0.025932 0.192494 -0.229322
0.025937 0.193493 -0.22935
0.0249346 0.193512 -0.228859
0.025942 0.194493 -0.229378
0.0249396 0.194512 -0.228887
0.025947 0.195492 -0.229406
0.0249446 0.195511 -0.228915
0.025952 0.196492 -0.229435
0.0249496 0.196511 -0.228943
0.025957 0.197492 -0.229463
0.0249546 0.19751 -0.228971
0.025962 0.198491 -0.229491
0.0249596 0.19851 -0.229
0.025967 0.199491 -0.229519
0.0249646 0.19951 -0.229028
0.025972 0.20049 -0.229547
0.0249696 0.200509 -0.229056
0.025977 0.20149 -0.229575
0.0249746 0.201509 -0.229084
0.025982 0.202489 -0.229603
0.0249797 0.202508 -0.229112
0.025987 0.203489 -0.229632
0.0249847 0.203508 -0.22914
0.0249913 0.203994 -0.229654
0.024898 0.184487 -0.229605
0.0248996 0.183974 -0.230091
0.0259003 0.184469 -0.230096
0.0259053 0.185468 -0.230125
0.024903 0.185487 -0.229633
0.0259104 0.186468 -0.230153
0.024908 0.186487 -0.229661
0.0259154 0.187467 -0.230181
0.024913 0.187486 -0.22969
0.0259204 0.188467 -0.230209
0.024918 0.188486 -0.229718
0.0259254 0.189467 -0.230237
0.024923 0.189485 -0.229746
0.024928 0.190485 -0.229774
0.024933 0.191485 -0.229802
0.0259954 0.203461 -0.230631
0.024998 0.204479 -0.230168
0.0260004 0.20446 -0.230659
0.0260054 0.20546 -0.230687
0.025003 0.205479 -0.230196
0.0250097 0.205965 -0.23071
0.0248963 0.18246 -0.230548
0.024898 0.181946 -0.231034
0.0258987 0.182441 -0.23104
0.0259037 0.183441 -0.231068
0.0249013 0.18346 -0.230577
0.0259087 0.18444 -0.231096
0.0259137 0.18544 -0.231124
0.0260038 0.203433 -0.231631
0.0260088 0.204432 -0.231659
0.0260138 0.205432 -0.231687
0.0250181 0.205936 -0.23171
0.0259071 0.182413 -0.232039
0.0249064 0.181918 -0.232034
0.0259121 0.183413 -0.232067
0.0259171 0.184412 -0.232096
0.0259221 0.185412 -0.232124
0.0260122 0.203404 -0.23263
0.0260172 0.204404 -0.232658
0.0260222 0.205404 -0.232687
0.0250265 0.205908 -0.232709
0.0249131 0.182404 -0.232548
0.0249198 0.182889 -0.233061
0.0259205 0.183384 -0.233067
0.0259255 0.184384 -0.233095
0.0259305 0.185384 -0.233123
0.0259355 0.186383 -0.233151
0.0260155 0.202377 -0.233602
0.0260205 0.203376 -0.23363
0.0260255 0.204376 -0.233658
0.0260306 0.205375 -0.233686
0.0250349 0.20588 -0.233709
0.0249265 0.183375 -0.233575
0.0249331 0.183861 -0.234089
0.0259338 0.184356 -0.234095
0.0259388 0.185355 -0.234123
0.0259439 0.186355 -0.234151
0.0259489 0.187355 -0.234179
0.0259539 0.188354 -0.234207
0.0259589 0.189354 -0.234235
0.0259639 0.190353 -0.234264
0.0259689 0.191353 -0.234292
0.0260089 0.19935 -0.234517
0.0260139 0.200349 -0.234545
0.0260189 0.201349 -0.234573
0.0260239 0.202349 -0.234601
0.0260289 0.203348 -0.234629
0.0260339 0.204348 -0.234658
0.0250365 0.205366 -0.234194
0.0250382 0.204852 -0.23468
0.0251116 0.22036 -0.234617
0.0251133 0.219846 -0.235102
0.0251183 0.220846 -0.23513
0.026119 0.221341 -0.235136
0.026124 0.22234 -0.235164
0.0249398 0.184347 -0.234603
0.0249465 0.184832 -0.235117
0.0259472 0.185327 -0.235122
0.0259522 0.186327 -0.235151
0.0259572 0.187326 -0.235179
0.0259622 0.188326 -0.235207
0.0259672 0.189326 -0.235235
0.0259722 0.190325 -0.235263
0.0259772 0.191325 -0.235291
0.0259823 0.192324 -0.235319
0.0259873 0.193324 -0.235348
0.0259923 0.194324 -0.235376
0.0259973 0.195323 -0.235404
0.0260023 0.196323 -0.235432
0.0260073 0.197322 -0.23546