<VTKFile type="UnstructuredGrid" version="0.1" byte_order="BigEndian">
  <UnstructuredGrid>
    <Piece NumberOfPoints="13528" NumberOfCells="27056">
      <PointData>
        <DataArray type="Float64" Name="position" NumberOfComponents="3" format="ascii">
0.0607107 -0.158366 -1.03616
0.0607306 -0.158902 -1.03662
0.0617111 -0.158366 -1.03666
0.0606928 -0.157905 -1.03669
0.0607505 -0.159437 -1.03708
0.0607703 -0.159972 -1.03754
0.0617509 -0.159436 -1.03758
0.0617131 -0.15844 -1.03765
0.0606749 -0.157444 -1.03723
0.0616753 -0.157443 -1.03773
0.0616376 -0.156447 -1.0378
0.0606371 -0.156447 -1.0373
0.0606192 -0.155986 -1.03784
0.0617529 -0.159511 -1.03858
0.0607723 -0.160047 -1.03854
0.0617151 -0.158514 -1.03865
0.0616773 -0.157518 -1.03873
0.0616395 -0.156521 -1.0388
0.0606013 -0.155525 -1.03838
0.0616018 -0.155525 -1.03887
0.0605834 -0.155064 -1.03891
0.0607544 -0.159586 -1.03908
0.0607365 -0.159124 -1.03961
0.0617171 -0.158588 -1.03965
0.0616793 -0.157592 -1.03972
0.0616415 -0.156595 -1.0398
0.0616038 -0.155599 -1.03987
0.0605854 -0.155138 -1.03991
0.0607186 -0.158663 -1.04015
0.0606809 -0.157667 -1.04022
0.060663 -0.157206 -1.04076
0.0616435 -0.15667 -1.04079
0.0606053 -0.155674 -1.04037
0.0606252 -0.156209 -1.04083
0.0606451 -0.156745 -1.04129
0.0587476 -0.159364 -1.03508
0.0587675 -0.1599 -1.03555
0.059748 -0.159363 -1.03558
0.0597103 -0.158367 -1.03566
0.0587098 -0.158368 -1.03516
0.0586919 -0.157906 -1.03569
0.0587874 -0.160435 -1.03601
0.0588073 -0.16097 -1.03647
0.0597878 -0.160434 -1.03651
0.05975 -0.159438 -1.03658
0.0596745 -0.157445 -1.03673
0.0586741 -0.157445 -1.03623
0.0586562 -0.156984 -1.03677
0.0597898 -0.160509 -1.0375
0.0588093 -0.161045 -1.03747
0.0586581 -0.157059 -1.03776
0.0596387 -0.156522 -1.0378
0.0597918 -0.160583 -1.0385
0.0588112 -0.161119 -1.03846
0.0586403 -0.156597 -1.0383
0.0586224 -0.156136 -1.03884
0.0596029 -0.1556 -1.03887
0.0597938 -0.160657 -1.0395
0.0588132 -0.161193 -1.03946
0.059756 -0.159661 -1.03957
0.0596049 -0.155674 -1.03987
0.0586243 -0.156211 -1.03983
0.0587953 -0.160732 -1.04
0.0587774 -0.160271 -1.04053
0.059758 -0.159735 -1.04057
0.0597202 -0.158738 -1.04064
0.0596824 -0.157742 -1.04072
0.0586641 -0.157281 -1.04076
0.0586442 -0.156746 -1.04029
0.0596447 -0.156745 -1.04079
0.0587595 -0.15981 -1.04107
0.0587218 -0.158813 -1.04114
0.058684 -0.157817 -1.04122
0.0567468 -0.159366 -1.03409
0.0567666 -0.159901 -1.03455
0.0577472 -0.159365 -1.03459
0.0567289 -0.158904 -1.03462
0.0567865 -0.160436 -1.03501
0.0568064 -0.160972 -1.03547
0.057787 -0.160436 -1.03551
0.056711 -0.158443 -1.03516
0.0566931 -0.157982 -1.03569
0.0568084 -0.161046 -1.03647
0.0566752 -0.157521 -1.03623
0.0566573 -0.15706 -1.03676
0.0568283 -0.161581 -1.03693
0.0568482 -0.162117 -1.03739
0.0578287 -0.161581 -1.03743
0.0566593 -0.157134 -1.03776
0.0578307 -0.161655 -1.03843
0.0568502 -0.162191 -1.03839
0.0576418 -0.156672 -1.0388
0.0566613 -0.157208 -1.03876
0.0578327 -0.161729 -1.03942
0.0568521 -0.162265 -1.03938
0.0576438 -0.156747 -1.03979
0.0566633 -0.157283 -1.03976
0.0568342 -0.161804 -1.03992
0.0568164 -0.161343 -1.04046
0.0577969 -0.160807 -1.04049
0.0566653 -0.157357 -1.04075
0.0567985 -0.160882 -1.04099
0.0567607 -0.159885 -1.04107
0.0567428 -0.159424 -1.0416
0.0577233 -0.158888 -1.04164
0.056705 -0.158428 -1.04168
0.0566851 -0.157892 -1.04122
0.0567249 -0.158963 -1.04214
0.0557483 -0.15944 -1.03458
0.0548254 -0.161508 -1.03493
0.0548453 -0.162044 -1.03539
0.0558259 -0.161508 -1.03543
0.0547877 -0.160512 -1.03501
0.0547499 -0.159515 -1.03508
0.054732 -0.159054 -1.03562
0.0557125 -0.158518 -1.03566
0.0548652 -0.162579 -1.03586
0.0548851 -0.163115 -1.03632
0.0558656 -0.162579 -1.03636
0.0558279 -0.161582 -1.03643
0.0547141 -0.158593 -1.03615
0.0546962 -0.158132 -1.03669
0.0556767 -0.157596 -1.03673
0.0558676 -0.162653 -1.03735
0.0548871 -0.163189 -1.03731
0.0556787 -0.15767 -1.03772
0.0546982 -0.158206 -1.03769
0.0558696 -0.162727 -1.03835
0.0548891 -0.163263 -1.03831
0.0546803 -0.157745 -1.03822
0.0546624 -0.157284 -1.03876
0.0548712 -0.162802 -1.03885
0.0548533 -0.162341 -1.03938
0.0546644 -0.157358 -1.03975
0.0548354 -0.16188 -1.03992
0.0548175 -0.161419 -1.04045
0.0546664 -0.157433 -1.04075
0.0547996 -0.160958 -1.04099
0.0547817 -0.160496 -1.04153
0.0557622 -0.15996 -1.04156
0.0547062 -0.158503 -1.04167
0.0546863 -0.157968 -1.04121
0.0547638 -0.160035 -1.04206
0.054726 -0.159039 -1.04214
0.0528226 -0.161436 -1.03294
0.0528425 -0.161971 -1.0334
0.053823 -0.161435 -1.03344
0.0537852 -0.160438 -1.03351
0.0527848 -0.160439 -1.03301
0.0527669 -0.159978 -1.03355
0.0528624 -0.162506 -1.03386
0.0528822 -0.163042 -1.03432
0.0538628 -0.162506 -1.03436
0.053825 -0.161509 -1.03443
0.0537872 -0.160513 -1.03451
0.052749 -0.159517 -1.03408
0.0537495 -0.159516 -1.03458
0.0527311 -0.159056 -1.03462
0.0538648 -0.16258 -1.03536
0.0528842 -0.163116 -1.03532
0.0527331 -0.15913 -1.03562
0.0528862 -0.16319 -1.03632
0.0527152 -0.158669 -1.03615
0.0526973 -0.158208 -1.03669
0.0528882 -0.163265 -1.03731
0.0526993 -0.158282 -1.03768
0.0528902 -0.163339 -1.03831
0.0536819 -0.15782 -1.03872
0.0527013 -0.158356 -1.03868
0.0528723 -0.162878 -1.03885
0.0528544 -0.162417 -1.03938
0.0526834 -0.157895 -1.03922
0.0526655 -0.157434 -1.03975
0.0528365 -0.161956 -1.03992
0.0528186 -0.161494 -1.04045
0.0527053 -0.158505 -1.04068
0.0526854 -0.157969 -1.04021
0.0536858 -0.157969 -1.04071
0.0538012 -0.161033 -1.04149
0.0528206 -0.161569 -1.04145
0.0527073 -0.158579 -1.04167
0.0528027 -0.161108 -1.04199
0.0527649 -0.160111 -1.04206
0.0527272 -0.159115 -1.04213
0.0508237 -0.161511 -1.03294
0.0508436 -0.162047 -1.0334
0.050786 -0.160515 -1.03301
0.0507681 -0.160054 -1.03355
0.0508635 -0.162582 -1.03386
0.0508834 -0.163117 -1.03432
0.0507502 -0.159592 -1.03408
0.0507323 -0.159131 -1.03462
0.0508854 -0.163192 -1.03532
0.0507343 -0.159206 -1.03561
0.0508874 -0.163266 -1.03631
0.0507164 -0.158744 -1.03615
0.0506985 -0.158283 -1.03669
0.0508893 -0.16334 -1.03731
0.0507005 -0.158358 -1.03768
0.0508913 -0.163415 -1.03831
0.051683 -0.157896 -1.03872
0.0506826 -0.157897 -1.03822
0.0506647 -0.157435 -1.03875
0.0518739 -0.162953 -1.03934
0.0508933 -0.163489 -1.03931
0.0506667 -0.15751 -1.03975
0.0508754 -0.163028 -1.03984
0.0508575 -0.162567 -1.04038
0.0518381 -0.16203 -1.04042
0.051687 -0.158044 -1.04071
0.0506687 -0.157584 -1.04075
0.0518401 -0.162105 -1.04141
0.0508595 -0.162641 -1.04137
0.051689 -0.158119 -1.04171
0.0506706 -0.157658 -1.04175
0.0508416 -0.16218 -1.04191
0.0508237 -0.161719 -1.04245
0.0518043 -0.161183 -1.04248
0.0517665 -0.160186 -1.04256
0.0517287 -0.159189 -1.04263
0.0507104 -0.158729 -1.04267
0.0506905 -0.158194 -1.04221
0.0508058 -0.161257 -1.04298
0.0507681 -0.160261 -1.04306
0.0507303 -0.159264 -1.04313
0.0488249 -0.161587 -1.03293
0.0488448 -0.162122 -1.03339
0.048807 -0.161126 -1.03347
0.0497875 -0.16059 -1.03351
0.0488646 -0.162658 -1.03386
0.0488845 -0.163193 -1.03432
0.0487891 -0.160665 -1.034
0.0487712 -0.160204 -1.03454
0.0497517 -0.159667 -1.03458
0.0488865 -0.163267 -1.03532
0.0487533 -0.159742 -1.03508
0.0487354 -0.159281 -1.03561
0.0488885 -0.163342 -1.03631
0.0487175 -0.15882 -1.03615
0.0486996 -0.158359 -1.03668
0.0488905 -0.163416 -1.03731
0.0496821 -0.157897 -1.03772
0.0486817 -0.157898 -1.03722
0.0486638 -0.157437 -1.03776
0.0488925 -0.16349 -1.03831
0.0486658 -0.157511 -1.03875
0.0488945 -0.163564 -1.0393
0.0496483 -0.157049 -1.03979
0.0486479 -0.15705 -1.03929
0.04863 -0.156589 -1.03982
0.049877 -0.163103 -1.04034
0.0488965 -0.163639 -1.0403
0.0496503 -0.157124 -1.04079
0.048632 -0.156663 -1.04082
0.049879 -0.163177 -1.04134
0.0488984 -0.163713 -1.0413
0.0486718 -0.157734 -1.04174
0.0486519 -0.157198 -1.04128
0.049881 -0.163251 -1.04233
0.0489004 -0.163787 -1.0423
0.0498432 -0.162255 -1.04241
0.0496921 -0.158269 -1.04271
0.0486738 -0.157808 -1.04274
0.0488825 -0.163326 -1.04283
0.0488646 -0.162865 -1.04337
0.0498452 -0.162329 -1.04341
0.0498074 -0.161332 -1.04348
0.0497696 -0.160336 -1.04355
0.0497319 -0.159339 -1.04363
0.0487135 -0.158879 -1.04366
0.0486937 -0.158344 -1.0432
0.0488467 -0.162404 -1.0439
0.048809 -0.161407 -1.04398
0.0487712 -0.160411 -1.04405
0.0487334 -0.159414 -1.04413
0.0478264 -0.161662 -1.03343
0.0468658 -0.162733 -1.03385
0.0468857 -0.163269 -1.03432
0.046828 -0.161737 -1.03393
0.0467902 -0.16074 -1.034
0.0467723 -0.160279 -1.03454
0.0468876 -0.163343 -1.03531
0.0467544 -0.159818 -1.03507
0.0477171 -0.158821 -1.03565
0.0467167 -0.158822 -1.03515
0.0466988 -0.15836 -1.03568
0.0469075 -0.163878 -1.03577
0.0469274 -0.164414 -1.03624
0.047908 -0.163878 -1.03627
0.0476813 -0.157899 -1.03672
0.0466809 -0.157899 -1.03622
0.046663 -0.157438 -1.03676
0.0479099 -0.163952 -1.03727
0.0469294 -0.164488 -1.03723
0.0476455 -0.156976 -1.03779
0.0466451 -0.156977 -1.03729
0.0466272 -0.156516 -1.03783
0.0479119 -0.164026 -1.03827
0.0469314 -0.164562 -1.03823
0.0476475 -0.157051 -1.03879
0.0466093 -0.156055 -1.03836
0.0476097 -0.156054 -1.03886
0.0465914 -0.155594 -1.0389
0.0479139 -0.164101 -1.03927
0.0469334 -0.164637 -1.03923
0.0476117 -0.156128 -1.03986
0.0465934 -0.155668 -1.0399
0.0479159 -0.164175 -1.04026
0.0469354 -0.164711 -1.04023
0.0476137 -0.156203 -1.04086
0.0465954 -0.155742 -1.04089
0.0469552 -0.165246 -1.04069
0.0469751 -0.165782 -1.04115
0.0479557 -0.165246 -1.04119
0.0479179 -0.164249 -1.04126
0.0476535 -0.157273 -1.04178
0.0476157 -0.156277 -1.04185
0.0465974 -0.155816 -1.04189
0.0479577 -0.16532 -1.04218
0.0469771 -0.165856 -1.04215
0.0479199 -0.164323 -1.04226
0.0476554 -0.157348 -1.04278
0.0466172 -0.156352 -1.04235
0.0466371 -0.156887 -1.04281
0.0469592 -0.165395 -1.04268
0.0469413 -0.164934 -1.04322
0.0479219 -0.164398 -1.04325
0.0478841 -0.163401 -1.04333
0.0476952 -0.158419 -1.0437
0.0466769 -0.157958 -1.04374
0.046657 -0.157423 -1.04328
0.0469234 -0.164473 -1.04375
0.0468857 -0.163476 -1.04383
0.0468678 -0.163015 -1.04436
0.0478483 -0.162479 -1.0444
0.0478105 -0.161482 -1.04448
0.0477728 -0.160486 -1.04455
0.047735 -0.159489 -1.04462
0.0467167 -0.159029 -1.04466
0.0466968 -0.158493 -1.0442
0.0468499 -0.162554 -1.0449
0.0468121 -0.161557 -1.04497
0.0467743 -0.160561 -1.04505
0.0467365 -0.159564 -1.04512
0.0448669 -0.162809 -1.03385
0.0448868 -0.163344 -1.03431
0.0448291 -0.161812 -1.03393
0.0447914 -0.160816 -1.034
0.045754 -0.159819 -1.03458
0.0447536 -0.159819 -1.03408
0.0447357 -0.159358 -1.03461
0.0449067 -0.16388 -1.03478
0.0449266 -0.164415 -1.03524
0.0459071 -0.163879 -1.03528
0.0447178 -0.158897 -1.03515
0.0456804 -0.1579 -1.03572
0.04468 -0.157901 -1.03522
0.0456427 -0.156903 -1.0358
0.0446422 -0.156904 -1.0353
0.0446243 -0.156443 -1.03583
0.0449285 -0.164489 -1.03623
0.0456447 -0.156978 -1.03679
0.0446064 -0.155982 -1.03637
0.0456069 -0.155981 -1.03687
0.0445886 -0.155521 -1.0369
0.0449305 -0.164564 -1.03723
0.0456089 -0.156055 -1.03786
0.0445707 -0.15506 -1.03744
0.0455711 -0.155059 -1.03794
0.0455333 -0.154062 -1.03801
0.0445329 -0.154063 -1.03751
0.044515 -0.153602 -1.03805
0.0449504 -0.165099 -1.03769
0.0449703 -0.165635 -1.03815
0.0459508 -0.165098 -1.03819
0.0455731 -0.155133 -1.03894
0.0455353 -0.154137 -1.03901
0.044517 -0.153676 -1.03905
0.0459528 -0.165173 -1.03919
0.0449723 -0.165709 -1.03915
0.0455751 -0.155208 -1.03993
0.0455373 -0.154211 -1.04001
0.044519 -0.153751 -1.04004
0.0449922 -0.166244 -1.03961
0.0450121 -0.16678 -1.04008
0.0459926 -0.166244 -1.04011
0.0459548 -0.165247 -1.04019
0.0455771 -0.155282 -1.04093
0.0455393 -0.154285 -1.041
0.044521 -0.153825 -1.04104
0.0459946 -0.166318 -1.04111
0.045014 -0.166854 -1.04107
0.045579 -0.155356 -1.04193
0.0445408 -0.15436 -1.0415
0.0445607 -0.154896 -1.04196
0.0459966 -0.166392 -1.04211
0.045016 -0.166928 -1.04207
0.0456188 -0.156427 -1.04285
0.0446005 -0.155966 -1.04289
0.0445806 -0.155431 -1.04243
0.0459986 -0.166466 -1.0431
0.045018 -0.167002 -1.04307
0.0459608 -0.16547 -1.04318
0.0456586 -0.157498 -1.04377
0.0446403 -0.157037 -1.04381
0.0446204 -0.156502 -1.04335
0.0460006 -0.166541 -1.0441
0.04502 -0.167077 -1.04406
0.0459628 -0.165544 -1.04418
0.045925 -0.164548 -1.04425
0.0458872 -0.163551 -1.04432
0.0456983 -0.158568 -1.0447
0.04468 -0.158108 -1.04473
0.0446601 -0.157573 -1.04427
0.0450021 -0.166616 -1.0446
0.0449643 -0.165619 -1.04467
0.0449266 -0.164623 -1.04475
0.0448888 -0.163626 -1.04482
0.044851 -0.162629 -1.0449
0.0448132 -0.161633 -1.04497
0.0447755 -0.160636 -1.04505
0.0447377 -0.15964 -1.04512
0.0446999 -0.158643 -1.04519
0.0429058 -0.163881 -1.03378
0.0429257 -0.164417 -1.03424
0.0439062 -0.16388 -1.03428
0.042868 -0.162885 -1.03385
0.0428303 -0.161888 -1.03393
0.0427925 -0.160892 -1.034
0.0427547 -0.159895 -1.03407
0.0437174 -0.158898 -1.03465
0.0427169 -0.158899 -1.03415
0.0436796 -0.157901 -1.03472
0.0426792 -0.157902 -1.03422
0.0436418 -0.156905 -1.0348
0.0426414 -0.156905 -1.0343
0.043604 -0.155908 -1.03487
0.0426036 -0.155909 -1.03437
0.0435663 -0.154912 -1.03495
0.0425658 -0.154912 -1.03445
0.0425479 -0.154451 -1.03498
0.0435878 -0.181893 -1.03344
0.0436077 -0.182428 -1.0339
0.0445882 -0.181892 -1.03394
0.0445504 -0.180896 -1.03401
0.04355 -0.180896 -1.03351
0.0445127 -0.179899 -1.03409
0.0435122 -0.1799 -1.03359
0.0444749 -0.178903 -1.03416
0.0434745 -0.178903 -1.03366
0.0444371 -0.177906 -1.03423
0.0434367 -0.177907 -1.03373
0.0443993 -0.176909 -1.03431
0.0433989 -0.17691 -1.03381
0.043381 -0.176449 -1.03434
0.0429277 -0.164491 -1.03524
0.043606 -0.155983 -1.03587
0.0435682 -0.154986 -1.03594
0.04253 -0.15399 -1.03552
0.0435305 -0.15399 -1.03602
0.0425121 -0.153529 -1.03605
0.0439298 -0.190936 -1.03377
0.0439496 -0.191471 -1.03423
0.0449302 -0.190935 -1.03426
0.0448924 -0.189939 -1.03434
0.043892 -0.189939 -1.03384
0.0448546 -0.188942 -1.03441
0.0438542 -0.188943 -1.03391
0.0448169 -0.187945 -1.03449
0.0438164 -0.187946 -1.03399
0.0447791 -0.186949 -1.03456
0.0437787 -0.18695 -1.03406
0.0447413 -0.185952 -1.03464
0.0437409 -0.185953 -1.03414
0.0447035 -0.184956 -1.03471
0.0437031 -0.184957 -1.03421
0.0446658 -0.183959 -1.03479
0.0436653 -0.18396 -1.03429
0.044628 -0.182963 -1.03486
0.0436275 -0.182964 -1.03436
0.0445902 -0.181966 -1.03493
0.0445524 -0.18097 -1.03501
0.0445146 -0.179973 -1.03508
0.0444769 -0.178977 -1.03516
0.0444391 -0.17798 -1.03523
0.0444013 -0.176984 -1.03531
0.0433631 -0.175988 -1.03488
0.0443635 -0.175987 -1.03538
0.0443258 -0.174991 -1.03545
0.0433253 -0.174991 -1.03495
0.0433074 -0.17453 -1.03549
0.0429476 -0.165026 -1.0357
0.0429675 -0.165562 -1.03616
0.043948 -0.165026 -1.0362
0.0435702 -0.15506 -1.03694
0.0435325 -0.154064 -1.03701
0.0424943 -0.153068 -1.03659
0.0434947 -0.153067 -1.03709
0.0424764 -0.152607 -1.03712
0.0439695 -0.192007 -1.03469
0.0439894 -0.192542 -1.03515
0.04497 -0.192006 -1.03519
0.0449322 -0.191009 -1.03526
0.0448944 -0.190013 -1.03534
0.0448566 -0.189016 -1.03541
0.0448188 -0.18802 -1.03549
0.0447811 -0.187023 -1.03556
0.0447433 -0.186027 -1.03563
0.0447055 -0.18503 -1.03571
0.0446677 -0.184034 -1.03578
0.04463 -0.183037 -1.03586
0.0445922 -0.182041 -1.03593
0.0445544 -0.181044 -1.03601
0.0445166 -0.180048 -1.03608
0.0444789 -0.179051 -1.03615
0.0444411 -0.178055 -1.03623
0.0444033 -0.177058 -1.0363
0.0443655 -0.176062 -1.03638
0.0443278 -0.175065 -1.03645
0.0432895 -0.174069 -1.03603
0.04429 -0.174068 -1.03653
0.0432717 -0.173608 -1.03656
0.04395 -0.1651 -1.03719
0.0429694 -0.165636 -1.03716
0.0434967 -0.153142 -1.03809
0.0424784 -0.152681 -1.03812
0.0439715 -0.192081 -1.03569
0.0439536 -0.19162 -1.03622
0.0449342 -0.191084 -1.03626
0.0448964 -0.190087 -1.03633
0.0448586 -0.189091 -1.03641
0.0448208 -0.188094 -1.03648
0.0447831 -0.187098 -1.03656
0.0447453 -0.186101 -1.03663
0.0447075 -0.185104 -1.03671
0.0446697 -0.184108 -1.03678
0.044632 -0.183111 -1.03685
0.0445942 -0.182115 -1.03693
0.0445564 -0.181118 -1.037
0.0445186 -0.180122 -1.03708
0.0444808 -0.179125 -1.03715
0.0444431 -0.178129 -1.03723
0.0444053 -0.177132 -1.0373
0.0443675 -0.176136 -1.03737
0.0443297 -0.175139 -1.03745
0.0432915 -0.174143 -1.03702
0.0433114 -0.174679 -1.03748
0.0429893 -0.166171 -1.03762
0.0430092 -0.166707 -1.03808
0.0439898 -0.166171 -1.03812
0.0434987 -0.153216 -1.03908
0.0424803 -0.152755 -1.03912
0.0439357 -0.191159 -1.03676
0.0438979 -0.190162 -1.03683
0.0438602 -0.189166 -1.03691
0.0438224 -0.188169 -1.03698
0.0437846 -0.187172 -1.03705
0.0437468 -0.186176 -1.03713
0.0437091 -0.185179 -1.0372
0.0436713 -0.184183 -1.03728
0.0436335 -0.183186 -1.03735
0.0435957 -0.18219 -1.03743
0.043558 -0.181193 -1.0375
0.0435401 -0.180732 -1.03804
0.0445206 -0.180196 -1.03807
0.0444828 -0.1792 -1.03815
0.0444451 -0.178203 -1.03822
0.0444073 -0.177207 -1.0383
0.0433691 -0.176211 -1.03787
0.043389 -0.176746 -1.03833
0.0433313 -0.175214 -1.03795
0.0430291 -0.167242 -1.03854
0.043049 -0.167777 -1.039
0.0440295 -0.167241 -1.03904
0.0439917 -0.166245 -1.03911
0.0435006 -0.15329 -1.04008
0.0424823 -0.15283 -1.04012
0.0435222 -0.180271 -1.03857
0.0434844 -0.179275 -1.03865
0.0434466 -0.178278 -1.03872
0.0434088 -0.177282 -1.03879
0.0440315 -0.167316 -1.04004
0.043051 -0.167852 -1.04
0.0425221 -0.1539 -1.04104
0.0425022 -0.153365 -1.04058
0.0430708 -0.168387 -1.04046
0.0430907 -0.168923 -1.04092
0.0440713 -0.168386 -1.04096
0.0440335 -0.16739 -1.04103
0.0425619 -0.154971 -1.04196
0.042542 -0.154436 -1.0415
0.0440733 -0.168461 -1.04196
0.0430927 -0.168997 -1.04192
0.0440355 -0.167464 -1.04203
0.0426016 -0.156042 -1.04289
0.0425817 -0.155507 -1.04242
0.0431126 -0.169532 -1.04238
0.0431325 -0.170068 -1.04284
0.044113 -0.169532 -1.04288
0.0440753 -0.168535 -1.04295
0.0440375 -0.167539 -1.04303
0.0426414 -0.157113 -1.04381
0.0426215 -0.156577 -1.04335
0.044115 -0.169606 -1.04388
0.0431345 -0.170142 -1.04384
0.0440772 -0.168609 -1.04395
0.0440395 -0.167613 -1.04403
0.0426812 -0.158184 -1.04473
0.0426613 -0.157648 -1.04427
0.044117 -0.16968 -1.04487
0.0431365 -0.170216 -1.04484
0.0440792 -0.168684 -1.04495
0.0440415 -0.167687 -1.04502
0.0440037 -0.166691 -1.0451
0.0439659 -0.165694 -1.04517
0.0439281 -0.164698 -1.04525
0.0438903 -0.163701 -1.04532
0.0438526 -0.162704 -1.04539
0.0438148 -0.161708 -1.04547
0.043777 -0.160711 -1.04554
0.0437392 -0.159715 -1.04562
0.0427209 -0.159254 -1.04565
0.042701 -0.158719 -1.04519
0.0431186 -0.169755 -1.04537
0.0431007 -0.169294 -1.04591
0.0440812 -0.168758 -1.04595
0.0440434 -0.167761 -1.04602
0.0430052 -0.166766 -1.0456
0.0430251 -0.167301 -1.04606
0.0429675 -0.165769 -1.04567
0.0429297 -0.164772 -1.04574
0.0428919 -0.163776 -1.04582
0.0428541 -0.162779 -1.04589
0.0428164 -0.161783 -1.04597
0.0427786 -0.160786 -1.04604
0.0427408 -0.15979 -1.04612
0.0430828 -0.168833 -1.04644
0.043045 -0.167836 -1.04652
0.0434804 -0.179541 -1.05567
0.0435003 -0.180076 -1.05613
0.0444809 -0.17954 -1.05617
0.0444431 -0.178544 -1.05625
0.0434427 -0.178544 -1.05575
0.0444053 -0.177547 -1.05632
0.0434049 -0.177548 -1.05582
0.0443675 -0.176551 -1.0564
0.0433671 -0.176551 -1.0559
0.0443298 -0.175554 -1.05647
0.0433293 -0.175555 -1.05597
0.0433114 -0.175094 -1.05651
0.0436713 -0.184598 -1.0563
0.0436912 -0.185133 -1.05676
0.0446717 -0.184597 -1.0568
0.044634 -0.1836 -1.05687
0.0436335 -0.183601 -1.05637
0.0445962 -0.182604 -1.05695
0.0435957 -0.182605 -1.05645
0.0445584 -0.181607 -1.05702
0.043558 -0.181608 -1.05652
0.0445206 -0.180611 -1.0571
0.0435202 -0.180612 -1.0566
0.0444828 -0.179614 -1.05717
0.0444451 -0.178618 -1.05724
0.0444073 -0.177621 -1.05732
0.0443695 -0.176625 -1.05739
0.0443317 -0.175628 -1.05747
0.0433134 -0.175168 -1.0575
0.0437111 -0.185668 -1.05722
0.0437309 -0.186204 -1.05768
0.0447115 -0.185668 -1.05772
0.0446737 -0.184671 -1.0578
0.0446359 -0.183675 -1.05787
0.0445982 -0.182678 -1.05794
0.0445604 -0.181682 -1.05802
0.0445226 -0.180685 -1.05809
0.0444848 -0.179689 -1.05817
0.0444471 -0.178692 -1.05824
0.0444093 -0.177696 -1.05832
0.0443715 -0.176699 -1.05839
0.0443337 -0.175703 -1.05846
0.0433154 -0.175242 -1.0585
0.0437886 -0.187736 -1.05807
0.0438085 -0.188271 -1.05853
0.044789 -0.187735 -1.05857
0.0447513 -0.186739 -1.05864
0.0437508 -0.186739 -1.05814
0.0447135 -0.185742 -1.05872
0.0446757 -0.184746 -1.05879
0.0446379 -0.183749 -1.05887
0.0446002 -0.182753 -1.05894
0.0445624 -0.181756 -1.05902
0.0445246 -0.180759 -1.05909
0.0444868 -0.179763 -1.05916
0.044449 -0.178766 -1.05924
0.0444113 -0.17777 -1.05931
0.0443735 -0.176773 -1.05939
0.0443357 -0.175777 -1.05946
0.0433174 -0.175316 -1.0595
0.044791 -0.187809 -1.05957
0.0438105 -0.188345 -1.05953
0.0447532 -0.186813 -1.05964
0.0447155 -0.185816 -1.05972
0.0446777 -0.18482 -1.05979
0.0446399 -0.183823 -1.05986
0.0446021 -0.182827 -1.05994
0.0445644 -0.18183 -1.06001
0.0445266 -0.180834 -1.06009
0.0444888 -0.179837 -1.06016
0.044451 -0.178841 -1.06024
0.0444133 -0.177844 -1.06031
0.0433751 -0.176848 -1.05989
0.0433949 -0.177384 -1.06035
0.0433373 -0.175852 -1.05996
0.044793 -0.187884 -1.06056
0.0438125 -0.18842 -1.06053
0.0447552 -0.186887 -1.06064
0.0447175 -0.185891 -1.06071
0.0446797 -0.184894 -1.06079
0.0446419 -0.183898 -1.06086
0.0446041 -0.182901 -1.06094
0.0445664 -0.181905 -1.06101
0.0445286 -0.180908 -1.06108
0.0444908 -0.179912 -1.06116
0.0434526 -0.178916 -1.06073
0.0434725 -0.179451 -1.0612
0.0434148 -0.177919 -1.06081
0.0437946 -0.187959 -1.06106
0.0437767 -0.187498 -1.0616
0.0447572 -0.186961 -1.06164
0.0447194 -0.185965 -1.06171
0.0446817 -0.184968 -1.06178
0.0436435 -0.183973 -1.06136
0.0436634 -0.184508 -1.06182
0.0436057 -0.182976 -1.06143
0.0435679 -0.18198 -1.06151
0.0435301 -0.180983 -1.06158
0.0434924 -0.179986 -1.06166
0.0437588 -0.187036 -1.06213
0.043721 -0.18604 -1.06221
0.0436832 -0.185043 -1.06228
0.040559 -0.154691 -1.03046
0.0405789 -0.155226 -1.03092
0.0415594 -0.15469 -1.03095
0.0415217 -0.153694 -1.03103
0.0405212 -0.153694 -1.03053
0.0414839 -0.152697 -1.0311
0.0404835 -0.152698 -1.0306
0.0414461 -0.151701 -1.03118
0.0404457 -0.151701 -1.03068
0.0414083 -0.150704 -1.03125
0.0404079 -0.150705 -1.03075
0.04039 -0.150244 -1.03129
0.0407121 -0.158751 -1.03116
0.040732 -0.159287 -1.03162
0.0417125 -0.158751 -1.03165
0.0416748 -0.157754 -1.03173
0.0406743 -0.157755 -1.03123
0.041637 -0.156758 -1.0318
0.0406366 -0.156758 -1.0313
0.0415992 -0.155761 -1.03188
0.0405988 -0.155762 -1.03138
0.0415614 -0.154765 -1.03195
0.0415236 -0.153768 -1.03203
0.0414859 -0.152772 -1.0321
0.0414481 -0.151775 -1.03217
0.0414103 -0.150779 -1.03225
0.0403721 -0.149783 -1.03182
0.0413725 -0.149782 -1.03232
0.0403542 -0.149322 -1.03236
0.0407896 -0.160819 -1.032
0.0408095 -0.161354 -1.03247
0.0417901 -0.160818 -1.0325
0.0417523 -0.159821 -1.03258
0.0407519 -0.159822 -1.03208
0.0417145 -0.158825 -1.03265
0.0416767 -0.157828 -1.03273
0.041639 -0.156832 -1.0328
0.0416012 -0.155835 -1.03287
0.0415634 -0.154839 -1.03295
0.0415256 -0.153842 -1.03302
0.0414879 -0.152846 -1.0331
0.0414501 -0.151849 -1.03317
0.0414123 -0.150853 -1.03325
0.0413745 -0.149856 -1.03332
0.0403363 -0.14886 -1.0329
0.0413368 -0.14886 -1.03339
0.041299 -0.147863 -1.03347
0.0402986 -0.147864 -1.03297
0.0402807 -0.147403 -1.03351
0.0408672 -0.162886 -1.03285
0.0408871 -0.163421 -1.03331
0.0418676 -0.162885 -1.03335
0.0418298 -0.161889 -1.03343
0.0408294 -0.161889 -1.03293
0.0417921 -0.160892 -1.0335
0.0417543 -0.159896 -1.03357
0.0417165 -0.158899 -1.03365
0.0416787 -0.157903 -1.03372
0.041641 -0.156906 -1.0338
0.0416032 -0.15591 -1.03387
0.0415654 -0.154913 -1.03395
0.0415276 -0.153917 -1.03402
0.0414898 -0.15292 -1.03409
0.0414521 -0.151924 -1.03417
0.0414143 -0.150927 -1.03424
0.0413765 -0.149931 -1.03432
0.0413387 -0.148934 -1.03439
0.041301 -0.147937 -1.03447
0.0402826 -0.147477 -1.0345
0.0415114 -0.179901 -1.03259
0.0415313 -0.180437 -1.03305
0.0425118 -0.1799 -1.03309
0.042474 -0.178904 -1.03316
0.0414736 -0.178905 -1.03266
0.0424362 -0.177907 -1.03323
0.0414358 -0.177908 -1.03274
0.0414179 -0.177447 -1.03327
0.040907 -0.163957 -1.03378
0.0409268 -0.164492 -1.03424
0.0415296 -0.153991 -1.03502
0.0414918 -0.152994 -1.03509
0.0414541 -0.151998 -1.03517
0.0414163 -0.151001 -1.03524
0.0413785 -0.150005 -1.03532
0.0413407 -0.149008 -1.03539
0.041303 -0.148012 -1.03546
0.0402846 -0.147551 -1.0355
0.04174 -0.185955 -1.03314
0.0417599 -0.18649 -1.0336
0.0427404 -0.185954 -1.03364
0.0427027 -0.184957 -1.03371
0.0417022 -0.184958 -1.03321
0.0426649 -0.183961 -1.03379
0.0416645 -0.183961 -1.03329
0.0426271 -0.182964 -1.03386
0.0416267 -0.182965 -1.03336
0.0415889 -0.181968 -1.03344
0.0415511 -0.180972 -1.03351
0.0414 -0.176986 -1.03381
0.0423627 -0.175989 -1.03438
0.0413623 -0.175989 -1.03388
0.0423249 -0.174992 -1.03445
0.0413245 -0.174993 -1.03396
0.0422871 -0.173996 -1.03453
0.0412867 -0.173996 -1.03403
0.0422494 -0.172999 -1.0346
0.0412489 -0.173 -1.0341
0.0422116 -0.172003 -1.03468
0.0412112 -0.172003 -1.03418
0.0421738 -0.171006 -1.03475
0.0411734 -0.171007 -1.03425
0.042136 -0.170009 -1.03483
0.0411356 -0.17001 -1.03433
0.0420983 -0.169013 -1.0349
0.0410978 -0.169014 -1.0344
0.0410799 -0.168553 -1.03494
0.0409845 -0.166024 -1.03462
0.0410044 -0.16656 -1.03509
0.0419849 -0.166023 -1.03512
0.0419471 -0.165027 -1.0352
0.0409467 -0.165028 -1.0347
0.0414938 -0.153069 -1.03609
0.0414561 -0.152072 -1.03616
0.0414183 -0.151076 -1.03624
0.0413805 -0.150079 -1.03631
0.0413427 -0.149083 -1.03639
0.0413049 -0.148086 -1.03646
0.0402866 -0.147626 -1.0365
0.0429313 -0.191011 -1.03426
0.0428935 -0.190014 -1.03434
0.0418752 -0.189554 -1.03437
0.0418553 -0.189018 -1.03391
0.0418176 -0.188022 -1.03399
0.0417798 -0.187025 -1.03406
0.0422891 -0.17407 -1.03553
0.0422513 -0.173073 -1.0356
0.0422136 -0.172077 -1.03568
0.0421758 -0.17108 -1.03575
0.042138 -0.170084 -1.03582
0.0421002 -0.169087 -1.0359
0.041062 -0.168091 -1.03547
0.0420625 -0.168091 -1.03597
0.0420247 -0.167094 -1.03605
0.0410243 -0.167095 -1.03555
0.0419869 -0.166098 -1.03612
0.041458 -0.152146 -1.03716
0.0414203 -0.15115 -1.03724
0.0413825 -0.150153 -1.03731
0.0403443 -0.149158 -1.03688
0.0403642 -0.149693 -1.03735
0.0403065 -0.148161 -1.03696
0.042084 -0.195072 -1.03446
0.0421039 -0.195607 -1.03493
0.0430844 -0.195071 -1.03496
0.0430466 -0.194075 -1.03504
0.0420462 -0.194075 -1.03454
0.0430089 -0.193078 -1.03511
0.0420084 -0.193079 -1.03461
0.0419707 -0.192082 -1.03469
0.0419329 -0.191086 -1.03476
0.0418951 -0.190089 -1.03484
0.0422533 -0.173148 -1.0366
0.0422156 -0.172151 -1.03667
0.0421778 -0.171155 -1.03675
0.04214 -0.170158 -1.03682
0.0421022 -0.169162 -1.0369
0.0420645 -0.168165 -1.03697
0.0420267 -0.167168 -1.03704
0.0419889 -0.166172 -1.03712
0.04146 -0.152221 -1.03816
0.0414223 -0.151224 -1.03823
0.040384 -0.150228 -1.03781
0.0404039 -0.150764 -1.03827
0.042086 -0.195146 -1.03546
0.0420681 -0.194685 -1.036
0.0430486 -0.194149 -1.03603
0.0430109 -0.193152 -1.03611
0.0429731 -0.192156 -1.03618
0.0422931 -0.174218 -1.03752
0.0422553 -0.173222 -1.0376
0.0422175 -0.172225 -1.03767
0.0421798 -0.171229 -1.03774
0.042142 -0.170232 -1.03782
0.0421042 -0.169236 -1.03789
0.0420664 -0.168239 -1.03797
0.0420287 -0.167243 -1.03804
0.041462 -0.152295 -1.03916
0.0404238 -0.151299 -1.03873
0.0404437 -0.151835 -1.03919
0.0420502 -0.194224 -1.03653
0.0420323 -0.193763 -1.03707
0.0430128 -0.193227 -1.03711
0.0419746 -0.192231 -1.03668
0.0419945 -0.192766 -1.03714
0.0419567 -0.19177 -1.03722
0.0429373 -0.191234 -1.03726
0.0428995 -0.190237 -1.03733
0.0428617 -0.18924 -1.0374
0.042824 -0.188244 -1.03748
0.0427862 -0.187247 -1.03755
0.0427484 -0.186251 -1.03763
0.0427106 -0.185254 -1.0377
0.0426729 -0.184258 -1.03778
0.0426351 -0.183261 -1.03785
0.0425973 -0.182265 -1.03792
0.0425595 -0.181268 -1.038
0.0423706 -0.176286 -1.03837
0.0423329 -0.175289 -1.03844
0.0422951 -0.174293 -1.03852
0.0422573 -0.173296 -1.03859
0.0422195 -0.1723 -1.03867
0.0421818 -0.171303 -1.03874
0.042144 -0.170307 -1.03882
0.0421062 -0.16931 -1.03889
0.0420684 -0.168314 -1.03896
0.0404835 -0.152905 -1.04011
0.0404636 -0.15237 -1.03965
0.0420144 -0.193302 -1.0376
0.0419388 -0.191308 -1.03775
0.0419011 -0.190312 -1.03783
0.0418633 -0.189315 -1.0379
0.0418454 -0.188854 -1.03844
0.0428259 -0.188318 -1.03848
0.0427882 -0.187322 -1.03855
0.0427504 -0.186325 -1.03862
0.0427126 -0.185329 -1.0387
0.0426748 -0.184332 -1.03877
0.0426371 -0.183336 -1.03885
0.0425993 -0.182339 -1.03892
0.0425615 -0.181343 -1.039
0.0425237 -0.180346 -1.03907
0.042486 -0.17935 -1.03914
0.0424482 -0.178353 -1.03922
0.0424104 -0.177357 -1.03929
0.0423726 -0.17636 -1.03937
0.0423349 -0.175363 -1.03944
0.0422971 -0.174367 -1.03952
0.0422593 -0.17337 -1.03959
0.0422215 -0.172374 -1.03966
0.0421837 -0.171377 -1.03974
0.042146 -0.170381 -1.03981
0.0421082 -0.169384 -1.03989
0.0420704 -0.168388 -1.03996
0.0415038 -0.15344 -1.04108
0.0404855 -0.15298 -1.04111
0.0418275 -0.188393 -1.03897
0.0417897 -0.187397 -1.03905
0.041752 -0.1864 -1.03912
0.0417142 -0.185404 -1.0392
0.0416764 -0.184407 -1.03927
0.0416386 -0.183411 -1.03934
0.0416008 -0.182414 -1.03942
0.0415631 -0.181418 -1.03949
0.0415452 -0.180956 -1.04003
0.0425257 -0.18042 -1.04007
0.0424879 -0.179424 -1.04014
0.0424502 -0.178427 -1.04022
0.0424124 -0.177431 -1.04029
0.0423746 -0.176434 -1.04036
0.0413364 -0.175438 -1.03994
0.0413563 -0.175974 -1.0404
0.0412986 -0.174442 -1.04001
0.0412807 -0.173981 -1.04055
0.0422613 -0.173445 -1.04059
0.0422235 -0.172448 -1.04066
0.0421857 -0.171452 -1.04074
0.042148 -0.170455 -1.04081
0.0421102 -0.169459 -1.04088
0.040563 -0.155047 -1.04196
0.0405431 -0.154512 -1.0415
0.0405053 -0.153515 -1.04157
0.0415273 -0.180495 -1.04056
0.0414895 -0.179499 -1.04064
0.0414517 -0.178502 -1.04071
0.041414 -0.177506 -1.04079
0.0413762 -0.176509 -1.04086
0.0422633 -0.173519 -1.04158
0.0412827 -0.174055 -1.04155
0.0422255 -0.172522 -1.04166
0.0421877 -0.171526 -1.04173
0.0421499 -0.170529 -1.04181
0.0421122 -0.169533 -1.04188
0.0406028 -0.156118 -1.04288
0.0405829 -0.155582 -1.04242
0.0413026 -0.17459 -1.04201
0.0413225 -0.175126 -1.04247
0.042303 -0.17459 -1.04251
0.0422653 -0.173593 -1.04258
0.0422275 -0.172597 -1.04266
0.0421897 -0.1716 -1.04273
0.0421519 -0.170604 -1.0428
0.0406425 -0.157189 -1.04381
0.0406226 -0.156653 -1.04335
0.042305 -0.174664 -1.0435
0.0413245 -0.1752 -1.04347
0.0422673 -0.173668 -1.04358
0.0422295 -0.172671 -1.04365
0.0421917 -0.171675 -1.04373