<VTKFile type="UnstructuredGrid" version="0.1" byte_order="BigEndian">
  <UnstructuredGrid>
    <Piece NumberOfPoints="13528" NumberOfCells="27056">
      <PointData>
        <DataArray type="Float64" Name="position" NumberOfComponents="3" format="ascii">
0.0635203 -0.159096 -1.03604
0.0635399 -0.159631 -1.0365
0.0645219 -0.159098 -1.03653
0.0635048 -0.158635 -1.03657
0.0635596 -0.160167 -1.03696
0.0635793 -0.160703 -1.03742
0.0645612 -0.160169 -1.03745
0.0645261 -0.159172 -1.03753
0.0634894 -0.158174 -1.03711
0.064491 -0.158176 -1.0376
0.0644559 -0.157179 -1.03768
0.0634542 -0.157177 -1.03718
0.0634388 -0.156716 -1.03772
0.0645654 -0.160244 -1.03845
0.0635835 -0.160777 -1.03842
0.0645303 -0.159247 -1.03853
0.0644952 -0.158251 -1.0386
0.0644601 -0.157254 -1.03868
0.0634233 -0.156256 -1.03825
0.0644249 -0.156258 -1.03875
0.0634078 -0.155795 -1.03879
0.063568 -0.160317 -1.03895
0.0635525 -0.159856 -1.03949
0.0645345 -0.159322 -1.03952
0.0644994 -0.158326 -1.0396
0.0644643 -0.157329 -1.03967
0.0644291 -0.156332 -1.03975
0.063412 -0.155869 -1.03979
0.0635371 -0.159395 -1.04002
0.063502 -0.158398 -1.0401
0.0634865 -0.157937 -1.04063
0.0644685 -0.157404 -1.04067
0.0634317 -0.156405 -1.04025
0.0634514 -0.156941 -1.04071
0.063471 -0.157477 -1.04117
0.0615522 -0.160088 -1.03497
0.0615718 -0.160624 -1.03543
0.0625538 -0.16009 -1.03546
0.0625187 -0.159093 -1.03554
0.061517 -0.159091 -1.03504
0.0615016 -0.158631 -1.03558
0.0615915 -0.161159 -1.03589
0.0616111 -0.161695 -1.03635
0.0625931 -0.161161 -1.03639
0.062558 -0.160165 -1.03646
0.0624877 -0.158172 -1.03661
0.0614861 -0.15817 -1.03611
0.0614707 -0.157709 -1.03665
0.0625973 -0.161236 -1.03738
0.0616153 -0.16177 -1.03735
0.0614749 -0.157784 -1.03765
0.0624568 -0.15725 -1.03768
0.0626015 -0.161311 -1.03838
0.0616195 -0.161845 -1.03834
0.0614594 -0.157323 -1.03818
0.0614439 -0.156862 -1.03872
0.0624259 -0.156328 -1.03875
0.0626057 -0.161386 -1.03938
0.0616237 -0.16192 -1.03934
0.0625706 -0.160389 -1.03945
0.0624301 -0.156403 -1.03975
0.0614481 -0.156937 -1.03972
0.0616083 -0.161459 -1.03988
0.0615928 -0.160998 -1.04041
0.0625748 -0.160464 -1.04045
0.0625397 -0.159468 -1.04052
0.0625045 -0.158471 -1.0406
0.0614875 -0.158008 -1.04064
0.0614678 -0.157472 -1.04018
0.0624694 -0.157475 -1.04067
0.0615774 -0.160537 -1.04095
0.0615422 -0.15954 -1.04102
0.0615071 -0.158544 -1.0411
0.0595489 -0.160084 -1.03397
0.0595686 -0.16062 -1.03443
0.0605505 -0.160086 -1.03447
0.0595335 -0.159623 -1.03451
0.0595882 -0.161155 -1.03489
0.0596079 -0.161691 -1.03536
0.0605899 -0.161157 -1.03539
0.059518 -0.159162 -1.03504
0.0595025 -0.158701 -1.03558
0.0596121 -0.161766 -1.03635
0.0594871 -0.15824 -1.03612
0.0594716 -0.157779 -1.03665
0.0596318 -0.162301 -1.03681
0.0596514 -0.162837 -1.03727
0.0606334 -0.162304 -1.03731
0.0594758 -0.157854 -1.03765
0.0606376 -0.162378 -1.03831
0.0596556 -0.162912 -1.03827
0.060462 -0.157396 -1.03868
0.05948 -0.157929 -1.03865
0.0606418 -0.162453 -1.03931
0.0596598 -0.162987 -1.03927
0.0604662 -0.15747 -1.03968
0.0594842 -0.158004 -1.03964
0.0596444 -0.162526 -1.03981
0.0596289 -0.162065 -1.04034
0.0606109 -0.161531 -1.04038
0.0594884 -0.158079 -1.04064
0.0596134 -0.161604 -1.04088
0.0595783 -0.160608 -1.04095
0.0595629 -0.160147 -1.04149
0.0605448 -0.159613 -1.04152
0.0595277 -0.15915 -1.04156
0.0595081 -0.158615 -1.0411
0.0595474 -0.159686 -1.04202
0.0585515 -0.160157 -1.03447
0.0576243 -0.162222 -1.03482
0.057644 -0.162758 -1.03528
0.0586259 -0.162225 -1.03532
0.0575892 -0.161226 -1.0349
0.0575541 -0.160229 -1.03497
0.0575386 -0.159768 -1.03551
0.0585206 -0.159235 -1.03554
0.0576636 -0.163294 -1.03574
0.0576833 -0.16383 -1.03621
0.0586653 -0.163296 -1.03624
0.0586301 -0.162299 -1.03632
0.0575232 -0.159308 -1.03604
0.0575077 -0.158847 -1.03658
0.0584896 -0.158313 -1.03662
0.0586695 -0.163371 -1.03724
0.0576875 -0.163904 -1.0372
0.0584938 -0.158388 -1.03761
0.0575119 -0.158922 -1.03758
0.0586737 -0.163446 -1.03824
0.0576917 -0.163979 -1.0382
0.0574964 -0.158461 -1.03811
0.057481 -0.158 -1.03865
0.0576762 -0.163518 -1.03874
0.0576608 -0.163058 -1.03927
0.0574852 -0.158075 -1.03965
0.0576453 -0.162597 -1.03981
0.0576299 -0.162136 -1.04034
0.0574894 -0.15815 -1.04064
0.0576144 -0.161675 -1.04088
0.0575989 -0.161214 -1.04142
0.0585809 -0.16068 -1.04145
0.0575287 -0.159221 -1.04157
0.057509 -0.158685 -1.04111
0.0575835 -0.160753 -1.04195
0.0575484 -0.159757 -1.04203
0.0556169 -0.162143 -1.03283
0.0556365 -0.162679 -1.03329
0.0566185 -0.162146 -1.03333
0.0565834 -0.161149 -1.0334
0.0555818 -0.161147 -1.03291
0.0555663 -0.160686 -1.03344
0.0556562 -0.163215 -1.03375
0.0556759 -0.163751 -1.03421
0.0566578 -0.163217 -1.03425
0.0566227 -0.16222 -1.03433
0.0565876 -0.161224 -1.0344
0.0555508 -0.160225 -1.03398
0.0565525 -0.160227 -1.03448
0.0555354 -0.159764 -1.03451
0.056662 -0.163292 -1.03525
0.0556801 -0.163825 -1.03521
0.0555396 -0.159839 -1.03551
0.0556843 -0.1639 -1.03621
0.0555241 -0.159378 -1.03605
0.0555086 -0.158917 -1.03658
0.0556885 -0.163975 -1.03721
0.0555128 -0.158992 -1.03758
0.0556927 -0.16405 -1.0382
0.056499 -0.158533 -1.03861
0.055517 -0.159067 -1.03858
0.0556772 -0.163589 -1.03874
0.0556617 -0.163128 -1.03928
0.0555016 -0.158606 -1.03911
0.0554861 -0.158145 -1.03965
0.0556463 -0.162667 -1.03981
0.0556308 -0.162206 -1.04035
0.0555254 -0.159217 -1.04057
0.0555058 -0.158681 -1.04011
0.0565074 -0.158683 -1.04061
0.056617 -0.161748 -1.04138
0.055635 -0.162281 -1.04134
0.0555296 -0.159292 -1.04157
0.0556196 -0.16182 -1.04188
0.0555844 -0.160824 -1.04196
0.0555493 -0.159827 -1.04203
0.0536178 -0.162214 -1.03283
0.0536375 -0.16275 -1.0333
0.0535827 -0.161218 -1.03291
0.0535672 -0.160757 -1.03345
0.0536572 -0.163286 -1.03376
0.0536768 -0.163821 -1.03422
0.0535518 -0.160296 -1.03398
0.0535363 -0.159835 -1.03452
0.053681 -0.163896 -1.03521
0.0535405 -0.15991 -1.03551
0.0536852 -0.163971 -1.03621
0.0535251 -0.159449 -1.03605
0.0535096 -0.158988 -1.03659
0.0536894 -0.164046 -1.03721
0.0535138 -0.159063 -1.03758
0.0536936 -0.164121 -1.03821
0.0545 -0.158604 -1.03862
0.0534983 -0.158602 -1.03812
0.0534829 -0.158141 -1.03866
0.0546798 -0.163662 -1.03924
0.0536978 -0.164195 -1.0392
0.0534871 -0.158216 -1.03965
0.0536824 -0.163735 -1.03974
0.0536669 -0.163274 -1.04028
0.0546489 -0.16274 -1.04031
0.0545084 -0.158754 -1.04061
0.0534913 -0.158291 -1.04065
0.0546531 -0.162815 -1.04131
0.0536711 -0.163349 -1.04127
0.0545126 -0.158829 -1.04161
0.0534955 -0.158366 -1.04165
0.0536556 -0.162888 -1.04181
0.0536402 -0.162427 -1.04234
0.0546221 -0.161893 -1.04238
0.054587 -0.160897 -1.04246
0.0545519 -0.1599 -1.04253
0.0535348 -0.159437 -1.04257
0.0535151 -0.158901 -1.04211
0.0536247 -0.161966 -1.04288
0.0535896 -0.160969 -1.04296
0.0535545 -0.159973 -1.04303
0.0516188 -0.162285 -1.03284
0.0516385 -0.162821 -1.0333
0.0516033 -0.161824 -1.03337
0.0525853 -0.16129 -1.03341
0.0516581 -0.163356 -1.03376
0.0516778 -0.163892 -1.03422
0.0515879 -0.161363 -1.03391
0.0515724 -0.160902 -1.03445
0.0525544 -0.160369 -1.03448
0.051682 -0.163967 -1.03522
0.0515569 -0.160441 -1.03498
0.0515415 -0.159981 -1.03552
0.0516862 -0.164042 -1.03622
0.051526 -0.15952 -1.03605
0.0515106 -0.159059 -1.03659
0.0516904 -0.164116 -1.03721
0.0524967 -0.1586 -1.03762
0.0514951 -0.158598 -1.03713
0.0514796 -0.158137 -1.03766
0.0516946 -0.164191 -1.03821
0.0514838 -0.158212 -1.03866
0.0516988 -0.164266 -1.03921
0.05247 -0.157753 -1.03969
0.0514684 -0.157751 -1.0392
0.0514529 -0.15729 -1.03973
0.0526849 -0.163807 -1.04024
0.051703 -0.164341 -1.0402
0.0524742 -0.157828 -1.04069
0.0514571 -0.157365 -1.04073
0.0526891 -0.163882 -1.04124
0.0517072 -0.164416 -1.0412
0.0514964 -0.158436 -1.04165
0.0514768 -0.157901 -1.04119
0.0526933 -0.163957 -1.04223
0.0517114 -0.164491 -1.0422
0.0526582 -0.16296 -1.04231
0.0525177 -0.158974 -1.04261
0.0515006 -0.158511 -1.04265
0.0516959 -0.16403 -1.04273
0.0516805 -0.163569 -1.04327
0.0526624 -0.163035 -1.04331
0.0526273 -0.162039 -1.04338
0.0525922 -0.161042 -1.04346
0.052557 -0.160046 -1.04353
0.05154 -0.159583 -1.04357
0.0515203 -0.159047 -1.04311
0.051665 -0.163108 -1.04381
0.0516299 -0.162112 -1.04388
0.0515947 -0.161115 -1.04396
0.0515596 -0.160118 -1.04403
0.0506214 -0.162358 -1.03334
0.0496591 -0.163427 -1.03376
0.0496787 -0.163963 -1.03422
0.0496239 -0.16243 -1.03384
0.0495888 -0.161434 -1.03391
0.0495734 -0.160973 -1.03445
0.0496829 -0.164038 -1.03522
0.0495579 -0.160512 -1.03498
0.0505244 -0.159518 -1.03556
0.0495228 -0.159516 -1.03506
0.0495073 -0.159055 -1.0356
0.0497026 -0.164573 -1.03568
0.0497223 -0.165109 -1.03614
0.0507042 -0.164575 -1.03618
0.0504935 -0.158596 -1.03663
0.0494918 -0.158594 -1.03613
0.0494764 -0.158133 -1.03667
0.0507084 -0.16465 -1.03718
0.0497265 -0.165184 -1.03714
0.0504625 -0.157674 -1.0377
0.0494609 -0.157672 -1.0372
0.0494455 -0.157211 -1.03774
0.0507126 -0.164725 -1.03817
0.0497307 -0.165259 -1.03814
0.0504667 -0.157749 -1.0387
0.04943 -0.15675 -1.03828
0.0504316 -0.156752 -1.03877
0.0494145 -0.156289 -1.03881
0.0507168 -0.1648 -1.03917
0.0497349 -0.165333 -1.03913
0.0504358 -0.156827 -1.03977
0.0494187 -0.156364 -1.03981
0.050721 -0.164875 -1.04017
0.0497391 -0.165408 -1.04013
0.05044 -0.156902 -1.04077
0.0494229 -0.156439 -1.04081
0.0497587 -0.165944 -1.04059
0.0497784 -0.16648 -1.04105
0.0507603 -0.165946 -1.04109
0.0507252 -0.164949 -1.04117
0.0504793 -0.157973 -1.04169
0.0504442 -0.156977 -1.04176
0.0494271 -0.156514 -1.0418
0.0507645 -0.166021 -1.04209
0.0497826 -0.166555 -1.04205
0.0507294 -0.165024 -1.04216
0.0504835 -0.158048 -1.04269
0.0494468 -0.15705 -1.04226
0.0494665 -0.157585 -1.04273
0.0497671 -0.166094 -1.04259
0.0497517 -0.165633 -1.04312
0.0507336 -0.165099 -1.04316
0.0506985 -0.164103 -1.04323
0.0505229 -0.15912 -1.04361
0.0495058 -0.158657 -1.04365
0.0494861 -0.158121 -1.04319
0.0497362 -0.165172 -1.04366
0.0497011 -0.164175 -1.04373
0.0496856 -0.163714 -1.04427
0.0506676 -0.163181 -1.04431
0.0506324 -0.162184 -1.04438
0.0505973 -0.161188 -1.04446
0.0505622 -0.160191 -1.04453
0.0495451 -0.159728 -1.04457
0.0495254 -0.159193 -1.04411
0.0496701 -0.163254 -1.04481
0.049635 -0.162257 -1.04488
0.0495999 -0.16126 -1.04496
0.0495648 -0.160264 -1.04503
0.04766 -0.163498 -1.03377
0.0476797 -0.164033 -1.03423
0.0476249 -0.162501 -1.03384
0.0475898 -0.161505 -1.03392
0.0485563 -0.16051 -1.03449
0.0475547 -0.160508 -1.03399
0.0475392 -0.160047 -1.03453
0.0476993 -0.164569 -1.03469
0.047719 -0.165105 -1.03515
0.048701 -0.164571 -1.03519
0.0475237 -0.159586 -1.03506
0.0484902 -0.158592 -1.03563
0.0474886 -0.15859 -1.03514
0.0484551 -0.157595 -1.03571
0.0474535 -0.157593 -1.03521
0.047438 -0.157132 -1.03575
0.0477232 -0.16518 -1.03615
0.0484593 -0.15767 -1.03671
0.0474226 -0.156671 -1.03628
0.0484242 -0.156673 -1.03678
0.0474071 -0.15621 -1.03682
0.0477274 -0.165254 -1.03714
0.0484284 -0.156748 -1.03778
0.0473916 -0.15575 -1.03736
0.0483933 -0.155752 -1.03785
0.0483581 -0.154755 -1.03793
0.0473565 -0.154753 -1.03743
0.047341 -0.154292 -1.03797
0.0477471 -0.16579 -1.0376
0.0477667 -0.166326 -1.03807
0.0487487 -0.165792 -1.0381
0.0483975 -0.155827 -1.03885
0.0483623 -0.15483 -1.03893
0.0473452 -0.154367 -1.03897
0.0487529 -0.165867 -1.0391
0.0477709 -0.166401 -1.03906
0.0484017 -0.155901 -1.03985
0.0483665 -0.154905 -1.03992
0.0473494 -0.154442 -1.03996
0.0477906 -0.166936 -1.03952
0.0478103 -0.167472 -1.03999
0.0487922 -0.166938 -1.04002
0.0487571 -0.165942 -1.0401
0.0484059 -0.155976 -1.04085
0.0483707 -0.15498 -1.04092
0.0473536 -0.154517 -1.04096
0.0487964 -0.167013 -1.04102
0.0478145 -0.167547 -1.04098
0.0484101 -0.156051 -1.04184
0.0473733 -0.155052 -1.04142
0.047393 -0.155588 -1.04188
0.0488006 -0.167088 -1.04202
0.0478187 -0.167622 -1.04198
0.0484494 -0.157122 -1.04276
0.0474323 -0.15666 -1.0428
0.0474126 -0.156124 -1.04234
0.0488048 -0.167163 -1.04301
0.0478229 -0.167697 -1.04298
0.0487697 -0.166166 -1.04309
0.0484887 -0.158194 -1.04369
0.0474716 -0.157731 -1.04373
0.047452 -0.157195 -1.04327
0.048809 -0.167238 -1.04401
0.0478271 -0.167771 -1.04397
0.0487739 -0.166241 -1.04408
0.0487388 -0.165245 -1.04416
0.0487036 -0.164248 -1.04423
0.048528 -0.159265 -1.04461
0.0475109 -0.158802 -1.04465
0.0474913 -0.158267 -1.04419
0.0478116 -0.167311 -1.04451
0.0477765 -0.166314 -1.04459
0.0477413 -0.165317 -1.04466
0.0477062 -0.164321 -1.04473
0.0476711 -0.163324 -1.04481
0.047636 -0.162328 -1.04488
0.0476009 -0.161331 -1.04496
0.0475657 -0.160335 -1.04503
0.0475306 -0.159338 -1.04511
0.0456961 -0.164565 -1.03369
0.0457158 -0.165101 -1.03416
0.0466977 -0.164567 -1.03419
0.045661 -0.163568 -1.03377
0.0456259 -0.162572 -1.03384
0.0455907 -0.161575 -1.03392
0.0455556 -0.160579 -1.03399
0.0465221 -0.159584 -1.03457
0.0455205 -0.159582 -1.03407
0.046487 -0.158588 -1.03464
0.0454854 -0.158585 -1.03414
0.0464519 -0.157591 -1.03472
0.0454502 -0.157589 -1.03422
0.0464167 -0.156594 -1.03479
0.0454151 -0.156592 -1.03429
0.0463816 -0.155598 -1.03487
0.04538 -0.155596 -1.03437
0.0453645 -0.155135 -1.0349
0.0463325 -0.182578 -1.03334
0.0463522 -0.183114 -1.0338
0.0473342 -0.18258 -1.03384
0.047299 -0.181584 -1.03391
0.0462974 -0.181581 -1.03342
0.0472639 -0.180587 -1.03399
0.0462623 -0.180585 -1.03349
0.0472288 -0.17959 -1.03406
0.0462272 -0.179588 -1.03357
0.0471937 -0.178594 -1.03414
0.046192 -0.178592 -1.03364
0.0471585 -0.177597 -1.03421
0.0461569 -0.177595 -1.03372
0.0461415 -0.177134 -1.03425
0.04572 -0.165175 -1.03515
0.0464209 -0.156669 -1.03579
0.0463858 -0.155673 -1.03586
0.0453491 -0.154674 -1.03544
0.0463507 -0.154676 -1.03594
0.0453336 -0.154213 -1.03598
0.0466528 -0.191622 -1.03366
0.0466725 -0.192158 -1.03413
0.0476545 -0.191624 -1.03416
0.0476193 -0.190627 -1.03424
0.0466177 -0.190625 -1.03374
0.0475842 -0.189631 -1.03431
0.0465826 -0.189629 -1.03381
0.0475491 -0.188634 -1.03439
0.0465475 -0.188632 -1.03389
0.047514 -0.187638 -1.03446
0.0465124 -0.187636 -1.03396
0.0474789 -0.186641 -1.03454
0.0464772 -0.186639 -1.03404
0.0474437 -0.185645 -1.03461
0.0464421 -0.185643 -1.03411
0.0474086 -0.184648 -1.03469
0.046407 -0.184646 -1.03419
0.0473735 -0.183651 -1.03476
0.0463719 -0.183649 -1.03426
0.0473384 -0.182655 -1.03484
0.0473032 -0.181658 -1.03491
0.0472681 -0.180662 -1.03499
0.047233 -0.179665 -1.03506
0.0471979 -0.178669 -1.03514
0.0471627 -0.177672 -1.03521
0.046126 -0.176673 -1.03479
0.0471276 -0.176675 -1.03529
0.0470925 -0.175679 -1.03536
0.0460909 -0.175677 -1.03486
0.0460754 -0.175216 -1.0354
0.0457396 -0.165711 -1.03561
0.0457593 -0.166247 -1.03607
0.0467413 -0.165713 -1.03611
0.04639 -0.155748 -1.03686
0.0463549 -0.154751 -1.03693
0.0453181 -0.153752 -1.03651
0.0463198 -0.153754 -1.03701
0.0453027 -0.153291 -1.03705
0.0466922 -0.192693 -1.03459
0.0467118 -0.193229 -1.03505
0.0476938 -0.192695 -1.03508
0.0476587 -0.191699 -1.03516
0.0476235 -0.190702 -1.03523
0.0475884 -0.189706 -1.03531
0.0475533 -0.188709 -1.03538
0.0475182 -0.187713 -1.03546
0.0474831 -0.186716 -1.03553
0.0474479 -0.185719 -1.03561
0.0474128 -0.184723 -1.03568
0.0473777 -0.183726 -1.03576
0.0473426 -0.18273 -1.03583
0.0473074 -0.181733 -1.03591
0.0472723 -0.180737 -1.03598
0.0472372 -0.17974 -1.03606
0.0472021 -0.178743 -1.03613
0.0471669 -0.177747 -1.03621
0.0471318 -0.17675 -1.03628
0.0470967 -0.175754 -1.03636
0.0460599 -0.174755 -1.03594
0.0470616 -0.174757 -1.03643
0.0460445 -0.174294 -1.03647
0.0467455 -0.165788 -1.03711
0.0457635 -0.166322 -1.03707
0.046324 -0.153829 -1.03801
0.0453069 -0.153366 -1.03805
0.0466964 -0.192768 -1.03558
0.0466809 -0.192307 -1.03612
0.0476629 -0.191774 -1.03616
0.0476277 -0.190777 -1.03623
0.0475926 -0.189781 -1.03631
0.0475575 -0.188784 -1.03638
0.0475224 -0.187787 -1.03646
0.0474873 -0.186791 -1.03653
0.0474521 -0.185794 -1.03661
0.047417 -0.184798 -1.03668
0.0473819 -0.183801 -1.03676
0.0473468 -0.182805 -1.03683
0.0473116 -0.181808 -1.03691
0.0472765 -0.180811 -1.03698
0.0472414 -0.179815 -1.03706
0.0472063 -0.178818 -1.03713
0.0471711 -0.177822 -1.03721
0.047136 -0.176825 -1.03728
0.0471009 -0.175829 -1.03736
0.0460641 -0.17483 -1.03693
0.0460838 -0.175366 -1.03739
0.0457832 -0.166857 -1.03753
0.0458028 -0.167393 -1.03799
0.0467848 -0.166859 -1.03803
0.0463282 -0.153904 -1.039
0.0453111 -0.153441 -1.03904
0.0466654 -0.191846 -1.03666
0.0466303 -0.19085 -1.03673
0.0465952 -0.189853 -1.03681
0.0465601 -0.188857 -1.03688
0.046525 -0.18786 -1.03696
0.0464898 -0.186864 -1.03703
0.0464547 -0.185867 -1.03711
0.0464196 -0.18487 -1.03718
0.0463845 -0.183874 -1.03726
0.0463493 -0.182877 -1.03733
0.0463142 -0.181881 -1.03741
0.0462987 -0.18142 -1.03794
0.0472807 -0.180886 -1.03798
0.0472456 -0.17989 -1.03805
0.0472105 -0.178893 -1.03813
0.0471753 -0.177897 -1.0382
0.0461386 -0.176898 -1.03778
0.0461583 -0.177434 -1.03824
0.0461035 -0.175901 -1.03786
0.0458225 -0.167929 -1.03846
0.0458421 -0.168465 -1.03892
0.0468241 -0.167931 -1.03895
0.046789 -0.166934 -1.03903
0.0463324 -0.153979 -1.04
0.0453153 -0.153516 -1.04004
0.0462833 -0.180959 -1.03848
0.0462482 -0.179962 -1.03855
0.046213 -0.178966 -1.03863
0.0461779 -0.177969 -1.0387
0.0468283 -0.168006 -1.03995
0.0458463 -0.168539 -1.03991
0.0453546 -0.154587 -1.04096
0.0453349 -0.154052 -1.0405
0.045866 -0.169075 -1.04037
0.0458857 -0.169611 -1.04084
0.0468676 -0.169077 -1.04087
0.0468325 -0.168081 -1.04095
0.0453939 -0.155659 -1.04188
0.0453743 -0.155123 -1.04142
0.0468718 -0.169152 -1.04187
0.0458899 -0.169686 -1.04183
0.0468367 -0.168155 -1.04194
0.0454333 -0.15673 -1.04281
0.0454136 -0.156194 -1.04235
0.0459095 -0.170221 -1.04229
0.0459292 -0.170757 -1.04276
0.0469111 -0.170223 -1.04279
0.046876 -0.169227 -1.04287
0.0468409 -0.16823 -1.04294
0.0454726 -0.157802 -1.04373
0.0454529 -0.157266 -1.04327
0.0469153 -0.170298 -1.04379
0.0459334 -0.170832 -1.04375
0.0468802 -0.169302 -1.04386
0.0468451 -0.168305 -1.04394
0.0455119 -0.158873 -1.04465
0.0454922 -0.158337 -1.04419
0.0469195 -0.170373 -1.04479
0.0459376 -0.170907 -1.04475
0.0468844 -0.169376 -1.04486
0.0468493 -0.16838 -1.04494
0.0468142 -0.167383 -1.04501
0.0467791 -0.166387 -1.04509
0.0467439 -0.16539 -1.04516
0.0467088 -0.164394 -1.04524
0.0466737 -0.163397 -1.04531
0.0466386 -0.162401 -1.04538
0.0466034 -0.161404 -1.04546
0.0465683 -0.160407 -1.04553
0.0455512 -0.159944 -1.04557
0.0455316 -0.159409 -1.04511
0.0459221 -0.170446 -1.04529
0.0459067 -0.169985 -1.04582
0.0468886 -0.169451 -1.04586
0.0468535 -0.168455 -1.04593
0.0458168 -0.167456 -1.04551
0.0458364 -0.167992 -1.04597
0.0457816 -0.16646 -1.04559
0.0457465 -0.165463 -1.04566
0.0457114 -0.164466 -1.04574
0.0456763 -0.16347 -1.04581
0.0456411 -0.162473 -1.04589
0.045606 -0.161477 -1.04596
0.0455709 -0.16048 -1.04603
0.0458912 -0.169524 -1.04636
0.0458561 -0.168528 -1.04643
0.0462844 -0.180238 -1.05558
0.0463041 -0.180774 -1.05604
0.0472861 -0.18024 -1.05608
0.0472509 -0.179244 -1.05615
0.0462493 -0.179242 -1.05566
0.0472158 -0.178247 -1.05623
0.0462142 -0.178245 -1.05573
0.0471807 -0.177251 -1.0563
0.0461791 -0.177248 -1.0558
0.0471456 -0.176254 -1.05638
0.0461439 -0.176252 -1.05588
0.0461285 -0.175791 -1.05642
0.0464643 -0.185296 -1.0562
0.0464839 -0.185832 -1.05666
0.0474659 -0.185298 -1.0567
0.0474308 -0.184301 -1.05677
0.0464291 -0.184299 -1.05628
0.0473956 -0.183305 -1.05685
0.046394 -0.183303 -1.05635
0.0473605 -0.182308 -1.05692
0.0463589 -0.182306 -1.05643
0.0473254 -0.181312 -1.057
0.0463238 -0.18131 -1.0565
0.0472903 -0.180315 -1.05707
0.0472551 -0.179319 -1.05715
0.04722 -0.178322 -1.05722
0.0471849 -0.177325 -1.0573
0.0471498 -0.176329 -1.05737
0.0461327 -0.175866 -1.05741
0.0465036 -0.186367 -1.05712
0.0465232 -0.186903 -1.05759
0.0475052 -0.186369 -1.05762
0.0474701 -0.185373 -1.0577
0.047435 -0.184376 -1.05777
0.0473998 -0.18338 -1.05785
0.0473647 -0.182383 -1.05792
0.0473296 -0.181386 -1.058
0.0472945 -0.18039 -1.05807
0.0472593 -0.179393 -1.05815
0.0472242 -0.178397 -1.05822
0.0471891 -0.1774 -1.0583
0.047154 -0.176404 -1.05837
0.0461369 -0.175941 -1.05841
0.046578 -0.188435 -1.05797
0.0465977 -0.188971 -1.05843
0.0475797 -0.188437 -1.05847
0.0475445 -0.187441 -1.05854
0.0465429 -0.187439 -1.05805
0.0475094 -0.186444 -1.05862
0.0474743 -0.185448 -1.05869
0.0474392 -0.184451 -1.05877
0.047404 -0.183454 -1.05884
0.0473689 -0.182458 -1.05892
0.0473338 -0.181461 -1.05899
0.0472987 -0.180465 -1.05907
0.0472635 -0.179468 -1.05914
0.0472284 -0.178472 -1.05922
0.0471933 -0.177475 -1.05929
0.0471582 -0.176478 -1.05937
0.0461411 -0.176016 -1.05941
0.0475839 -0.188512 -1.05947
0.0466019 -0.189046 -1.05943
0.0475487 -0.187516 -1.05954
0.0475136 -0.186519 -1.05962
0.0474785 -0.185522 -1.05969
0.0474434 -0.184526 -1.05977
0.0474082 -0.183529 -1.05984
0.0473731 -0.182533 -1.05992
0.047338 -0.181536 -1.05999
0.0473029 -0.18054 -1.06007
0.0472677 -0.179543 -1.06014
0.0472326 -0.178546 -1.06022
0.0461959 -0.177548 -1.05979
0.0462155 -0.178084 -1.06025
0.0461607 -0.176551 -1.05987
0.0475881 -0.188587 -1.06046
0.0466061 -0.189121 -1.06043
0.0475529 -0.18759 -1.06054
0.0475178 -0.186594 -1.06061
0.0474827 -0.185597 -1.06069
0.0474476 -0.184601 -1.06076
0.0474124 -0.183604 -1.06084
0.0473773 -0.182608 -1.06091
0.0473422 -0.181611 -1.06099
0.0473071 -0.180614 -1.06106
0.0462703 -0.179616 -1.06064
0.04629 -0.180152 -1.0611
0.0462352 -0.178619 -1.06072
0.0465906 -0.18866 -1.06096
0.0465752 -0.188199 -1.0615
0.0475571 -0.187665 -1.06154
0.047522 -0.186669 -1.06161
0.0474869 -0.185672 -1.06169
0.0464501 -0.184673 -1.06126
0.0464698 -0.185209 -1.06172
0.046415 -0.183677 -1.06134
0.0463799 -0.18268 -1.06141
0.0463448 -0.181684 -1.06149
0.0463096 -0.180687 -1.06156
0.0465597 -0.187738 -1.06204
0.0465246 -0.186741 -1.06211
0.0464895 -0.185745 -1.06219
0.0433641 -0.155367 -1.03038
0.0433838 -0.155903 -1.03084
0.0443658 -0.155369 -1.03088
0.0443306 -0.154373 -1.03095
0.043329 -0.154371 -1.03046
0.0442955 -0.153376 -1.03103
0.0432939 -0.153374 -1.03053
0.0442604 -0.152379 -1.0311
0.0432588 -0.152377 -1.03061
0.0442253 -0.151383 -1.03118
0.0432236 -0.151381 -1.03068
0.0432082 -0.15092 -1.03122
0.0435088 -0.159428 -1.03108
0.0435285 -0.159964 -1.03154
0.0445105 -0.15943 -1.03158
0.0444753 -0.158434 -1.03165
0.0434737 -0.158432 -1.03116
0.0444402 -0.157437 -1.03173
0.0434386 -0.157435 -1.03123
0.0444051 -0.156441 -1.0318
0.0434035 -0.156439 -1.03131
0.04437 -0.155444 -1.03188
0.0443348 -0.154447 -1.03195
0.0442997 -0.153451 -1.03203
0.0442646 -0.152454 -1.0321
0.0442295 -0.151458 -1.03218
0.0431927 -0.150459 -1.03175
0.0441943 -0.150461 -1.03225
0.0431773 -0.149998 -1.03229
0.0435833 -0.161496 -1.03193
0.0436029 -0.162032 -1.03239
0.0445849 -0.161498 -1.03242
0.0445498 -0.160502 -1.0325
0.0435482 -0.1605 -1.032
0.0445147 -0.159505 -1.03257
0.0444795 -0.158509 -1.03265
0.0444444 -0.157512 -1.03272
0.0444093 -0.156515 -1.0328
0.0443742 -0.155519 -1.03287
0.044339 -0.154522 -1.03295
0.0443039 -0.153526 -1.03302
0.0442688 -0.152529 -1.0331
0.0442337 -0.151533 -1.03317
0.0441985 -0.150536 -1.03325
0.0431618 -0.149537 -1.03283
0.0441634 -0.149539 -1.03332
0.0441283 -0.148543 -1.0334
0.0431267 -0.148541 -1.0329
0.0431112 -0.14808 -1.03344
0.0436577 -0.163564 -1.03277
0.0436774 -0.1641 -1.03324
0.0446594 -0.163566 -1.03327
0.0446242 -0.16257 -1.03335
0.0436226 -0.162568 -1.03285
0.0445891 -0.161573 -1.03342
0.044554 -0.160577 -1.0335
0.0445189 -0.15958 -1.03357
0.0444837 -0.158583 -1.03365
0.0444486 -0.157587 -1.03372
0.0444135 -0.15659 -1.0338
0.0443784 -0.155594 -1.03387
0.0443432 -0.154597 -1.03395
0.0443081 -0.153601 -1.03402
0.044273 -0.152604 -1.0341
0.0442379 -0.151607 -1.03417
0.0442027 -0.150611 -1.03425
0.0441676 -0.149614 -1.03432
0.0441325 -0.148618 -1.0344
0.0431154 -0.148155 -1.03444
0.044259 -0.180581 -1.0325
0.0442787 -0.181116 -1.03296
0.0452607 -0.180583 -1.033
0.0452255 -0.179586 -1.03307
0.0442239 -0.179584 -1.03257
0.0451904 -0.17859 -1.03314
0.0441888 -0.178588 -1.03265
0.0441733 -0.178127 -1.03318
0.0436971 -0.164636 -1.0337
0.0437167 -0.165171 -1.03416
0.0443474 -0.154672 -1.03494
0.0443123 -0.153675 -1.03502
0.0442772 -0.152679 -1.03509
0.0442421 -0.151682 -1.03517
0.0442069 -0.150686 -1.03524
0.0441718 -0.149689 -1.03532
0.0441367 -0.148693 -1.03539
0.0431196 -0.14823 -1.03543
0.044474 -0.186635 -1.03305
0.0444936 -0.187171 -1.03351
0.0454756 -0.186637 -1.03354
0.0454405 -0.18564 -1.03362
0.0444389 -0.185638 -1.03312
0.0454054 -0.184644 -1.03369
0.0444037 -0.184642 -1.0332
0.0453702 -0.183647 -1.03377
0.0443686 -0.183645 -1.03327
0.0443335 -0.182649 -1.03335
0.0442984 -0.181652 -1.03342
0.0441579 -0.177666 -1.03372
0.0451244 -0.176671 -1.03429
0.0441227 -0.176669 -1.0338
0.0450892 -0.175675 -1.03437
0.0440876 -0.175673 -1.03387
0.0450541 -0.174678 -1.03444
0.0440525 -0.174676 -1.03394
0.045019 -0.173682 -1.03452
0.0440174 -0.17368 -1.03402
0.0449839 -0.172685 -1.03459
0.0439822 -0.172683 -1.03409
0.0449487 -0.171688 -1.03467
0.0439471 -0.171686 -1.03417
0.0449136 -0.170692 -1.03474
0.043912 -0.17069 -1.03424
0.0448785 -0.169695 -1.03482
0.0438769 -0.169693 -1.03432
0.0438614 -0.169232 -1.03486
0.0437715 -0.166704 -1.03454
0.0437912 -0.167239 -1.03501
0.0447731 -0.166706 -1.03504
0.044738 -0.165709 -1.03512
0.0437364 -0.165707 -1.03462
0.0443165 -0.15375 -1.03602
0.0442814 -0.152754 -1.03609
0.0442463 -0.151757 -1.03617
0.0442111 -0.150761 -1.03624
0.044176 -0.149764 -1.03632
0.0441409 -0.148767 -1.03639
0.0431238 -0.148304 -1.03643
0.0456554 -0.191695 -1.03417
0.0456203 -0.190698 -1.03424
0.0446032 -0.190235 -1.03428
0.0445836 -0.1897 -1.03382
0.0445484 -0.188703 -1.03389
0.0445133 -0.187706 -1.03397
0.0450583 -0.174753 -1.03544
0.0450232 -0.173756 -1.03551
0.0449881 -0.17276 -1.03559
0.0449529 -0.171763 -1.03566
0.0449178 -0.170767 -1.03574
0.0448827 -0.16977 -1.03581
0.043846 -0.168772 -1.03539
0.0448476 -0.168774 -1.03589
0.0448125 -0.167777 -1.03596
0.0438108 -0.167775 -1.03547
0.0447773 -0.16678 -1.03604
0.0442856 -0.152829 -1.03709
0.0442505 -0.151832 -1.03716
0.0442153 -0.150835 -1.03724
0.0431786 -0.149837 -1.03682
0.0431983 -0.150372 -1.03728
0.0431435 -0.14884 -1.03689
0.0447985 -0.195754 -1.03437
0.0448182 -0.196289 -1.03483
0.0458001 -0.195756 -1.03486
0.045765 -0.194759 -1.03494
0.0447634 -0.194757 -1.03444
0.0457299 -0.193763 -1.03501
0.0447283 -0.193761 -1.03452
0.0446931 -0.192764 -1.03459
0.044658 -0.191767 -1.03467
0.0446229 -0.190771 -1.03474
0.0450274 -0.173831 -1.03651
0.0449923 -0.172835 -1.03659
0.0449571 -0.171838 -1.03666
0.044922 -0.170842 -1.03674
0.0448869 -0.169845 -1.03681
0.0448518 -0.168848 -1.03689
0.0448167 -0.167852 -1.03696
0.0447815 -0.166855 -1.03704
0.0442898 -0.152903 -1.03809
0.0442547 -0.151907 -1.03816
0.0432179 -0.150908 -1.03774
0.0432376 -0.151444 -1.0382
0.0448027 -0.195829 -1.03536
0.0447872 -0.195368 -1.0359
0.0457692 -0.194834 -1.03593
0.0457341 -0.193838 -1.03601
0.045699 -0.192841 -1.03608
0.0450667 -0.174903 -1.03743
0.0450316 -0.173906 -1.03751
0.0449965 -0.17291 -1.03758
0.0449613 -0.171913 -1.03766
0.0449262 -0.170916 -1.03773
0.0448911 -0.16992 -1.03781
0.044856 -0.168923 -1.03788
0.0448209 -0.167927 -1.03796
0.044294 -0.152978 -1.03908
0.0432572 -0.15198 -1.03866
0.0432769 -0.152515 -1.03912
0.0447718 -0.194907 -1.03643
0.0447563 -0.194446 -1.03697
0.0457383 -0.193912 -1.03701
0.0447015 -0.192914 -1.03658
0.0447212 -0.193449 -1.03705
0.0446861 -0.192453 -1.03712
0.045668 -0.191919 -1.03716
0.0456329 -0.190923 -1.03723
0.0455978 -0.189926 -1.03731
0.0455627 -0.18893 -1.03738
0.0455275 -0.187933 -1.03746
0.0454924 -0.186936 -1.03753
0.0454573 -0.18594 -1.03761
0.0454222 -0.184943 -1.03768
0.045387 -0.183947 -1.03776
0.0453519 -0.18295 -1.03783
0.0453168 -0.181954 -1.03791
0.0451412 -0.176971 -1.03828
0.045106 -0.175974 -1.03836
0.0450709 -0.174978 -1.03843
0.0450358 -0.173981 -1.03851
0.0450007 -0.172984 -1.03858
0.0449655 -0.171988 -1.03866
0.0449304 -0.170991 -1.03873
0.0448953 -0.169995 -1.03881
0.0448602 -0.168998 -1.03888
0.0433162 -0.153587 -1.04004
0.0432966 -0.153051 -1.03958
0.0447409 -0.193985 -1.03751
0.0446706 -0.191992 -1.03766
0.0446355 -0.190995 -1.03773
0.0446004 -0.189999 -1.03781
0.0445849 -0.189538 -1.03834
0.0455669 -0.189004 -1.03838
0.0455317 -0.188008 -1.03845
0.0454966 -0.187011 -1.03853
0.0454615 -0.186015 -1.0386
0.0454264 -0.185018 -1.03868
0.0453912 -0.184022 -1.03875
0.0453561 -0.183025 -1.03883
0.045321 -0.182028 -1.0389
0.0452859 -0.181032 -1.03898
0.0452507 -0.180035 -1.03905
0.0452156 -0.179039 -1.03913
0.0451805 -0.178042 -1.0392
0.0451454 -0.177046 -1.03928
0.0451102 -0.176049 -1.03935
0.0450751 -0.175052 -1.03943
0.04504 -0.174056 -1.0395
0.0450049 -0.173059 -1.03958
0.0449697 -0.172063 -1.03965
0.0449346 -0.171066 -1.03973
0.0448995 -0.17007 -1.0398
0.0448644 -0.169073 -1.03988
0.0443375 -0.154124 -1.041
0.0433204 -0.153662 -1.04104
0.0445694 -0.189077 -1.03888
0.0445343 -0.188081 -1.03895
0.0444992 -0.187084 -1.03903
0.0444641 -0.186087 -1.0391
0.0444289 -0.185091 -1.03918
0.0443938 -0.184094 -1.03925
0.0443587 -0.183098 -1.03933
0.0443236 -0.182101 -1.0394
0.0443081 -0.18164 -1.03994
0.0452901 -0.181107 -1.03998
0.0452549 -0.18011 -1.04005
0.0452198 -0.179114 -1.04013
0.0451847 -0.178117 -1.0402
0.0451496 -0.17712 -1.04028
0.0441128 -0.176122 -1.03985
0.0441325 -0.176657 -1.04031
0.0440777 -0.175125 -1.03993
0.0440622 -0.174664 -1.04046
0.0450442 -0.174131 -1.0405
0.0450091 -0.173134 -1.04057
0.0449739 -0.172138 -1.04065
0.0449388 -0.171141 -1.04072
0.0449037 -0.170144 -1.0408
0.0433949 -0.155729 -1.04189
0.0433752 -0.155194 -1.04143
0.0433401 -0.154197 -1.0415
0.0442926 -0.181179 -1.04048
0.0442575 -0.180183 -1.04055
0.0442224 -0.179186 -1.04063
0.0441873 -0.17819 -1.0407
0.0441521 -0.177193 -1.04078
0.0450484 -0.174206 -1.0415
0.0440664 -0.174739 -1.04146
0.0450133 -0.173209 -1.04157
0.0449781 -0.172212 -1.04165
0.044943 -0.171216 -1.04172
0.0449079 -0.170219 -1.0418
0.0434342 -0.156801 -1.04281
0.0434145 -0.156265 -1.04235
0.0440861 -0.175275 -1.04192
0.0441058 -0.175811 -1.04238
0.0450877 -0.175277 -1.04242
0.0450526 -0.17428 -1.04249
0.0450175 -0.173284 -1.04257
0.0449823 -0.172287 -1.04264
0.0449472 -0.171291 -1.04272
0.0434735 -0.157872 -1.04373
0.0434539 -0.157337 -1.04327
0.0450919 -0.175352 -1.04342
0.04411 -0.175885 -1.04338
0.0450568 -0.174355 -1.04349