<VTKFile type="UnstructuredGrid" version="0.1" byte_order="BigEndian">
  <UnstructuredGrid>
    <Piece NumberOfPoints="13528" NumberOfCells="27056">
      <PointData>
        <DataArray type="Float64" Name="position" NumberOfComponents="3" format="ascii">
0.0609299 -0.158801 -1.03614
0.0609497 -0.159337 -1.0366
0.0619305 -0.158801 -1.03664
0.0609124 -0.15834 -1.03668
0.0609695 -0.159872 -1.03706
0.0609892 -0.160408 -1.03753
0.06197 -0.159872 -1.03756
0.0619326 -0.158876 -1.03764
0.0608948 -0.157879 -1.03721
0.0618953 -0.157879 -1.03771
0.0618579 -0.156882 -1.03779
0.0608574 -0.156883 -1.03729
0.0608398 -0.156422 -1.03782
0.0619722 -0.159946 -1.03856
0.0609914 -0.160482 -1.03852
0.0619348 -0.15895 -1.03864
0.0618975 -0.157953 -1.03871
0.0618601 -0.156957 -1.03878
0.0608222 -0.155961 -1.03836
0.0618228 -0.15596 -1.03886
0.0608046 -0.1555 -1.0389
0.0609738 -0.160021 -1.03906
0.0609562 -0.15956 -1.0396
0.061937 -0.159024 -1.03963
0.0618996 -0.158028 -1.03971
0.0618623 -0.157031 -1.03978
0.0618249 -0.156035 -1.03986
0.0608068 -0.155574 -1.03989
0.0609386 -0.159099 -1.04013
0.0609013 -0.158102 -1.04021
0.0608837 -0.157641 -1.04074
0.0618644 -0.157106 -1.04078
0.0608266 -0.156109 -1.04035
0.0608463 -0.156645 -1.04082
0.0608661 -0.15718 -1.04128
0.0589662 -0.159798 -1.03507
0.058986 -0.160334 -1.03553
0.0599668 -0.159798 -1.03557
0.0599294 -0.158801 -1.03564
0.0589289 -0.158802 -1.03514
0.0589113 -0.158341 -1.03568
0.0590058 -0.160869 -1.03599
0.0590255 -0.161405 -1.03645
0.0600063 -0.160869 -1.03649
0.0599689 -0.159872 -1.03657
0.0598942 -0.157879 -1.03671
0.0588937 -0.15788 -1.03622
0.0588761 -0.157419 -1.03675
0.0600085 -0.160943 -1.03749
0.0590277 -0.161479 -1.03745
0.0588783 -0.157493 -1.03775
0.059859 -0.156957 -1.03779
0.0600106 -0.161018 -1.03849
0.0590298 -0.161554 -1.03845
0.0588607 -0.157032 -1.03828
0.0588431 -0.156571 -1.03882
0.0598239 -0.156035 -1.03886
0.0600128 -0.161092 -1.03948
0.059032 -0.161628 -1.03944
0.0599754 -0.160096 -1.03956
0.059826 -0.15611 -1.03986
0.0588453 -0.156645 -1.03982
0.0590144 -0.161167 -1.03998
0.0589968 -0.160706 -1.04052
0.0599776 -0.16017 -1.04055
0.0599402 -0.159174 -1.04063
0.0599029 -0.158177 -1.0407
0.0588848 -0.157716 -1.04074
0.058865 -0.157181 -1.04028
0.0598655 -0.157181 -1.04078
0.0589792 -0.160245 -1.04105
0.0589419 -0.159248 -1.04113
0.0589045 -0.158252 -1.0412
0.0569652 -0.159799 -1.03407
0.0569849 -0.160334 -1.03453
0.0579657 -0.159798 -1.03457
0.0569476 -0.159338 -1.03461
0.0570047 -0.16087 -1.03499
0.0570245 -0.161405 -1.03545
0.0580052 -0.160869 -1.03549
0.05693 -0.158877 -1.03514
0.0569124 -0.158415 -1.03568
0.0570266 -0.161479 -1.03645
0.0568948 -0.157954 -1.03621
0.0568772 -0.157493 -1.03675
0.0570464 -0.162015 -1.03691
0.0570661 -0.16255 -1.03737
0.0580469 -0.162015 -1.03741
0.0568794 -0.157568 -1.03775
0.0580491 -0.162089 -1.03841
0.0570683 -0.162625 -1.03837
0.0578623 -0.157107 -1.03878
0.0568815 -0.157642 -1.03874
0.0580512 -0.162164 -1.03941
0.0570705 -0.162699 -1.03937
0.0578645 -0.157181 -1.03978
0.0568837 -0.157717 -1.03974
0.0570529 -0.162238 -1.03991
0.0570353 -0.161777 -1.04044
0.0580161 -0.161242 -1.04048
0.0568859 -0.157791 -1.04074
0.0570177 -0.161316 -1.04098
0.0569803 -0.16032 -1.04105
0.0569627 -0.159859 -1.04159
0.0579435 -0.159323 -1.04162
0.0569254 -0.158862 -1.04166
0.0569056 -0.158327 -1.0412
0.0569452 -0.159398 -1.04212
0.0559668 -0.159873 -1.03457
0.0550431 -0.161941 -1.03492
0.0550629 -0.162476 -1.03538
0.0560437 -0.161941 -1.03542
0.0550058 -0.160944 -1.03499
0.0549684 -0.159948 -1.03507
0.0549509 -0.159487 -1.0356
0.0559316 -0.158951 -1.03564
0.0550827 -0.163012 -1.03584
0.0551024 -0.163547 -1.0363
0.0560832 -0.163012 -1.03634
0.0560458 -0.162015 -1.03641
0.0549333 -0.159026 -1.03614
0.0549157 -0.158565 -1.03667
0.0558964 -0.158029 -1.03671
0.0560854 -0.163086 -1.03734
0.0551046 -0.163622 -1.0373
0.0558986 -0.158103 -1.03771
0.0549178 -0.158639 -1.03767
0.0560875 -0.163161 -1.03833
0.0551068 -0.163696 -1.0383
0.0549002 -0.158178 -1.03821
0.0548826 -0.157717 -1.03874
0.0550892 -0.163235 -1.03883
0.0550716 -0.162774 -1.03937
0.0548848 -0.157791 -1.03974
0.055054 -0.162313 -1.0399
0.0550364 -0.161852 -1.04044
0.054887 -0.157866 -1.04074
0.0550188 -0.161391 -1.04098
0.0550012 -0.16093 -1.04151
0.055982 -0.160394 -1.04155
0.0549265 -0.158937 -1.04166
0.0549067 -0.158401 -1.0412
0.0549836 -0.160469 -1.04205
0.0549463 -0.159472 -1.04212
0.0530399 -0.161867 -1.03292
0.0530597 -0.162402 -1.03338
0.0540405 -0.161867 -1.03342
0.0540031 -0.16087 -1.0335
0.0530026 -0.16087 -1.033
0.052985 -0.160409 -1.03353
0.0530794 -0.162938 -1.03384
0.0530992 -0.163473 -1.03431
0.05408 -0.162938 -1.03434
0.0540426 -0.161941 -1.03442
0.0540053 -0.160945 -1.03449
0.0529674 -0.159948 -1.03407
0.0539679 -0.159948 -1.03457
0.0529498 -0.159487 -1.0346
0.0540821 -0.163012 -1.03534
0.0531014 -0.163548 -1.0353
0.052952 -0.159562 -1.0356
0.0531035 -0.163622 -1.0363
0.0529344 -0.159101 -1.03614
0.0529168 -0.15864 -1.03667
0.0531057 -0.163697 -1.0373
0.0529189 -0.158714 -1.03767
0.0531079 -0.163771 -1.0383
0.0539019 -0.158253 -1.03871
0.0529211 -0.158788 -1.03867
0.0530903 -0.16331 -1.03883
0.0530727 -0.162849 -1.03937
0.0529035 -0.158327 -1.0392
0.0528859 -0.157866 -1.03974
0.0530551 -0.162388 -1.0399
0.0530375 -0.161927 -1.04044
0.0529254 -0.158937 -1.04066
0.0529057 -0.158402 -1.0402
0.0539062 -0.158402 -1.0407
0.0540204 -0.161466 -1.04147
0.0530397 -0.162001 -1.04144
0.0529276 -0.159012 -1.04166
0.0530221 -0.16154 -1.04197
0.0529847 -0.160544 -1.04205
0.0529474 -0.159547 -1.04212
0.051041 -0.161942 -1.03292
0.0510608 -0.162477 -1.03338
0.0510037 -0.160945 -1.033
0.0509861 -0.160484 -1.03353
0.0510805 -0.163013 -1.03384
0.0511003 -0.163548 -1.0343
0.0509685 -0.160023 -1.03407
0.0509509 -0.159562 -1.0346
0.0511025 -0.163623 -1.0353
0.0509531 -0.159636 -1.0356
0.0511046 -0.163697 -1.0363
0.0509355 -0.159175 -1.03614
0.0509179 -0.158714 -1.03667
0.0511068 -0.163771 -1.0373
0.05092 -0.158789 -1.03767
0.051109 -0.163846 -1.03829
0.051903 -0.158328 -1.0387
0.0509024 -0.158328 -1.0382
0.0508849 -0.157867 -1.03874
0.0520919 -0.163385 -1.03933
0.0511111 -0.16392 -1.03929
0.050887 -0.157941 -1.03974
0.0510935 -0.163459 -1.03983
0.0510759 -0.162998 -1.04036
0.0520567 -0.162463 -1.0404
0.0519073 -0.158476 -1.0407
0.0508892 -0.158016 -1.04074
0.0520589 -0.162537 -1.0414
0.0510781 -0.163073 -1.04136
0.0519095 -0.158551 -1.0417
0.0508914 -0.15809 -1.04173
0.0510605 -0.162612 -1.0419
0.0510429 -0.162151 -1.04243
0.0520237 -0.161615 -1.04247
0.0519863 -0.160618 -1.04254
0.051949 -0.159622 -1.04262
0.0509309 -0.159161 -1.04266
0.0509111 -0.158625 -1.04219
0.0510253 -0.161689 -1.04297
0.050988 -0.160693 -1.04304
0.0509506 -0.159696 -1.04312
0.0490421 -0.162017 -1.03292
0.0490619 -0.162552 -1.03338
0.0490245 -0.161555 -1.03346
0.0500053 -0.16102 -1.03349
0.0490816 -0.163087 -1.03384
0.0491014 -0.163623 -1.0343
0.0490069 -0.161094 -1.03399
0.0489894 -0.160633 -1.03453
0.0499701 -0.160098 -1.03456
0.0491036 -0.163697 -1.0353
0.0489718 -0.160172 -1.03506
0.0489542 -0.159711 -1.0356
0.0491057 -0.163772 -1.0363
0.0489366 -0.15925 -1.03613
0.048919 -0.158789 -1.03667
0.0491079 -0.163846 -1.0373
0.0499019 -0.158328 -1.03771
0.0489014 -0.158328 -1.03721
0.0488838 -0.157867 -1.03774
0.0491101 -0.163921 -1.03829
0.048886 -0.157942 -1.03874
0.0491122 -0.163995 -1.03929
0.0498689 -0.15748 -1.03977
0.0488684 -0.157481 -1.03928
0.0488508 -0.157019 -1.03981
0.0500952 -0.163534 -1.04032
0.0491144 -0.16407 -1.04029
0.0498711 -0.157555 -1.04077
0.0488529 -0.157094 -1.04081
0.0500973 -0.163608 -1.04132
0.0491166 -0.164144 -1.04128
0.0488925 -0.158165 -1.04173
0.0488727 -0.157629 -1.04127
0.0500995 -0.163683 -1.04232
0.0491187 -0.164218 -1.04228
0.0500622 -0.162686 -1.04239
0.0499127 -0.1587 -1.04269
0.0488946 -0.158239 -1.04273
0.0491011 -0.163757 -1.04282
0.0490836 -0.163296 -1.04335
0.0500643 -0.162761 -1.04339
0.050027 -0.161764 -1.04347
0.0499896 -0.160768 -1.04354
0.0499523 -0.159771 -1.04361
0.0489341 -0.15931 -1.04365
0.0489144 -0.158775 -1.04319
0.049066 -0.162835 -1.04389
0.0490286 -0.161839 -1.04396
0.0489913 -0.160842 -1.04404
0.0489539 -0.159846 -1.04411
0.0480438 -0.162091 -1.03342
0.0470828 -0.163162 -1.03384
0.0471025 -0.163698 -1.0343
0.0470454 -0.162166 -1.03392
0.047008 -0.161169 -1.03399
0.0469905 -0.160708 -1.03453
0.0471047 -0.163772 -1.0353
0.0469729 -0.160247 -1.03506
0.047936 -0.15925 -1.03564
0.0469355 -0.159251 -1.03514
0.0469179 -0.15879 -1.03567
0.0471244 -0.164308 -1.03576
0.0471442 -0.164843 -1.03622
0.048125 -0.164308 -1.03626
0.0479009 -0.158328 -1.03671
0.0469003 -0.158329 -1.03621
0.0468827 -0.157868 -1.03674
0.0481271 -0.164382 -1.03726
0.0471464 -0.164918 -1.03722
0.0478657 -0.157406 -1.03778
0.0468651 -0.157406 -1.03728
0.0468475 -0.156945 -1.03782
0.0481293 -0.164456 -1.03825
0.0471485 -0.164992 -1.03822
0.0478678 -0.157481 -1.03878
0.04683 -0.156484 -1.03835
0.0478305 -0.156484 -1.03885
0.0468124 -0.156023 -1.03889
0.0481315 -0.164531 -1.03925
0.0471507 -0.165066 -1.03921
0.0478327 -0.156559 -1.03985
0.0468145 -0.156098 -1.03988
0.0481336 -0.164605 -1.04025
0.0471529 -0.165141 -1.04021
0.0478348 -0.156633 -1.04084
0.0468167 -0.156172 -1.04088
0.0471726 -0.165676 -1.04067
0.0471924 -0.166212 -1.04113
0.0481731 -0.165676 -1.04117
0.0481358 -0.16468 -1.04125
0.0478743 -0.157704 -1.04177
0.047837 -0.156707 -1.04184
0.0468189 -0.156247 -1.04188
0.0481753 -0.165751 -1.04217
0.0471945 -0.166286 -1.04213
0.048138 -0.164754 -1.04224
0.0478765 -0.157778 -1.04276
0.0468386 -0.156782 -1.04234
0.0468584 -0.157318 -1.0428
0.0471769 -0.165825 -1.04267
0.0471594 -0.165364 -1.0432
0.0481401 -0.164829 -1.04324
0.0481028 -0.163832 -1.04332
0.047916 -0.158849 -1.04369
0.0468979 -0.158389 -1.04372
0.0468781 -0.157853 -1.04326
0.0471418 -0.164903 -1.04374
0.0471044 -0.163907 -1.04381
0.0470868 -0.163446 -1.04435
0.0480676 -0.16291 -1.04439
0.0480302 -0.161913 -1.04446
0.0479929 -0.160917 -1.04454
0.0479555 -0.15992 -1.04461
0.0469374 -0.159459 -1.04465
0.0469177 -0.158924 -1.04419
0.0470692 -0.162985 -1.04489
0.0470319 -0.161988 -1.04496
0.0469945 -0.160991 -1.04503
0.0469572 -0.159995 -1.04511
0.0450839 -0.163237 -1.03384
0.0451036 -0.163773 -1.0343
0.0450465 -0.162241 -1.03391
0.0450092 -0.161244 -1.03399
0.0459723 -0.160247 -1.03456
0.0449718 -0.160248 -1.03406
0.0449542 -0.159787 -1.0346
0.0451234 -0.164308 -1.03476
0.0451431 -0.164844 -1.03522
0.0461239 -0.164308 -1.03526
0.0449366 -0.159325 -1.03513
0.0458998 -0.158329 -1.03571
0.0448993 -0.158329 -1.03521
0.0458624 -0.157332 -1.03578
0.0448619 -0.157332 -1.03528
0.0448443 -0.156871 -1.03582
0.0451453 -0.164918 -1.03622
0.0458646 -0.157407 -1.03678
0.0448267 -0.15641 -1.03636
0.0458273 -0.15641 -1.03685
0.0448091 -0.155949 -1.03689
0.0451475 -0.164992 -1.03722
0.0458294 -0.156485 -1.03785
0.0447915 -0.155488 -1.03743
0.0457921 -0.155488 -1.03793
0.0457547 -0.154492 -1.038
0.0447542 -0.154492 -1.0375
0.0447366 -0.154031 -1.03804
0.0451672 -0.165528 -1.03768
0.045187 -0.166063 -1.03814
0.0461678 -0.165528 -1.03818
0.0457942 -0.155562 -1.03892
0.0457569 -0.154566 -1.039
0.0447388 -0.154105 -1.03903
0.0461699 -0.165602 -1.03918
0.0451891 -0.166138 -1.03914
0.0457964 -0.155637 -1.03992
0.0457591 -0.15464 -1.04
0.0447409 -0.15418 -1.04003
0.0452089 -0.166673 -1.0396
0.0452287 -0.167209 -1.04006
0.0462094 -0.166673 -1.0401
0.0461721 -0.165677 -1.04017
0.0457986 -0.155711 -1.04092
0.0457612 -0.154715 -1.04099
0.0447431 -0.154254 -1.04103
0.0462116 -0.166748 -1.0411
0.0452308 -0.167283 -1.04106
0.0458007 -0.155786 -1.04192
0.0447629 -0.154789 -1.04149
0.0447826 -0.155325 -1.04195
0.0462138 -0.166822 -1.04209
0.045233 -0.167358 -1.04206
0.0458403 -0.156857 -1.04284
0.0448221 -0.156396 -1.04287
0.0448024 -0.15586 -1.04241
0.0462159 -0.166896 -1.04309
0.0452352 -0.167432 -1.04305
0.0461786 -0.1659 -1.04317
0.0458798 -0.157928 -1.04376
0.0448616 -0.157467 -1.0438
0.0448419 -0.156931 -1.04334
0.0462181 -0.166971 -1.04409
0.0452373 -0.167507 -1.04405
0.0461808 -0.165974 -1.04416
0.0461434 -0.164978 -1.04424
0.046106 -0.163981 -1.04431
0.0459193 -0.158999 -1.04468
0.0449012 -0.158538 -1.04472
0.0448814 -0.158002 -1.04426
0.0452197 -0.167045 -1.04459
0.0451824 -0.166049 -1.04466
0.045145 -0.165052 -1.04473
0.0451077 -0.164056 -1.04481
0.0450703 -0.163059 -1.04488
0.045033 -0.162063 -1.04496
0.0449956 -0.161066 -1.04503
0.0449583 -0.16007 -1.04511
0.0449209 -0.159073 -1.04518
0.0431223 -0.164309 -1.03376
0.0431421 -0.164844 -1.03423
0.0441228 -0.164308 -1.03426
0.043085 -0.163312 -1.03384
0.0430476 -0.162315 -1.03391
0.0430103 -0.161319 -1.03399
0.0429729 -0.160322 -1.03406
0.0439361 -0.159326 -1.03464
0.0429356 -0.159326 -1.03414
0.0438987 -0.158329 -1.03471
0.0428982 -0.158329 -1.03421
0.0438614 -0.157333 -1.03478
0.0428608 -0.157333 -1.03429
0.043824 -0.156336 -1.03486
0.0428235 -0.156336 -1.03436
0.0437867 -0.15534 -1.03493
0.0427861 -0.15534 -1.03443
0.0427686 -0.154879 -1.03497
0.0437968 -0.18232 -1.03342
0.0438166 -0.182856 -1.03388
0.0447973 -0.18232 -1.03392
0.04476 -0.181324 -1.03399
0.0437595 -0.181324 -1.0335
0.0447226 -0.180327 -1.03407
0.0437221 -0.180327 -1.03357
0.0446853 -0.179331 -1.03414
0.0436848 -0.179331 -1.03364
0.0446479 -0.178334 -1.03422
0.0436474 -0.178334 -1.03372
0.0446106 -0.177338 -1.03429
0.0436101 -0.177338 -1.03379
0.0435925 -0.176877 -1.03433
0.0431442 -0.164918 -1.03522
0.0438262 -0.156411 -1.03586
0.0437888 -0.155414 -1.03593
0.042751 -0.154418 -1.03551
0.0437515 -0.154417 -1.03601
0.0427334 -0.153957 -1.03604
0.0441351 -0.191364 -1.03375
0.0441549 -0.191899 -1.03421
0.0451357 -0.191363 -1.03425
0.0450983 -0.190367 -1.03432
0.0440978 -0.190367 -1.03382
0.045061 -0.18937 -1.0344
0.0440604 -0.18937 -1.0339
0.0450236 -0.188374 -1.03447
0.0440231 -0.188374 -1.03397
0.0449863 -0.187377 -1.03455
0.0439857 -0.187377 -1.03405
0.0449489 -0.186381 -1.03462
0.0439484 -0.186381 -1.03412
0.0449116 -0.185384 -1.03469
0.043911 -0.185384 -1.03419
0.0448742 -0.184388 -1.03477
0.0438737 -0.184388 -1.03427
0.0448369 -0.183391 -1.03484
0.0438363 -0.183391 -1.03434
0.0447995 -0.182395 -1.03492
0.0447622 -0.181398 -1.03499
0.0447248 -0.180402 -1.03507
0.0446875 -0.179405 -1.03514
0.0446501 -0.178409 -1.03522
0.0446127 -0.177412 -1.03529
0.0435749 -0.176416 -1.03487
0.0445754 -0.176415 -1.03536
0.044538 -0.175419 -1.03544
0.0435375 -0.175419 -1.03494
0.0435199 -0.174958 -1.03548
0.043164 -0.165454 -1.03568
0.0431838 -0.165989 -1.03615
0.0441645 -0.165454 -1.03618
0.043791 -0.155488 -1.03693
0.0437537 -0.154492 -1.037
0.0427158 -0.153496 -1.03658
0.0437163 -0.153495 -1.03708
0.0426982 -0.153035 -1.03711
0.0441747 -0.192434 -1.03467
0.0441944 -0.19297 -1.03513
0.0451752 -0.192434 -1.03517
0.0451378 -0.191438 -1.03524
0.0451005 -0.190441 -1.03532
0.0450631 -0.189445 -1.03539
0.0450258 -0.188448 -1.03547
0.0449884 -0.187452 -1.03554
0.0449511 -0.186455 -1.03562
0.0449137 -0.185459 -1.03569
0.0448764 -0.184462 -1.03577
0.044839 -0.183466 -1.03584
0.0448017 -0.182469 -1.03591
0.0447643 -0.181473 -1.03599
0.044727 -0.180476 -1.03606
0.0446896 -0.179479 -1.03614
0.0446523 -0.178483 -1.03621
0.0446149 -0.177486 -1.03629
0.0445776 -0.17649 -1.03636
0.0445402 -0.175493 -1.03644
0.0435023 -0.174497 -1.03601
0.0445029 -0.174497 -1.03651
0.0434847 -0.174036 -1.03655
0.0441667 -0.165528 -1.03718
0.0431859 -0.166064 -1.03714
0.0437185 -0.15357 -1.03807
0.0427003 -0.153109 -1.03811
0.0441768 -0.192509 -1.03567
0.0441592 -0.192048 -1.0362
0.04514 -0.191512 -1.03624
0.0451027 -0.190516 -1.03632
0.0450653 -0.189519 -1.03639
0.045028 -0.188523 -1.03647
0.0449906 -0.187526 -1.03654
0.0449532 -0.18653 -1.03661
0.0449159 -0.185533 -1.03669
0.0448785 -0.184537 -1.03676
0.0448412 -0.18354 -1.03684
0.0448038 -0.182543 -1.03691
0.0447665 -0.181547 -1.03699
0.0447291 -0.18055 -1.03706
0.0446918 -0.179554 -1.03714
0.0446544 -0.178557 -1.03721
0.0446171 -0.177561 -1.03728
0.0445797 -0.176564 -1.03736
0.0445424 -0.175568 -1.03743
0.0435045 -0.174571 -1.03701
0.0435243 -0.175107 -1.03747
0.0432057 -0.166599 -1.0376
0.0432254 -0.167135 -1.03807
0.0442062 -0.166599 -1.0381
0.0437206 -0.153644 -1.03907
0.0427025 -0.153183 -1.03911
0.0441416 -0.191587 -1.03674
0.0441043 -0.19059 -1.03681
0.0440669 -0.189594 -1.03689
0.0440296 -0.188597 -1.03696
0.0439922 -0.187601 -1.03704
0.0439549 -0.186604 -1.03711
0.0439175 -0.185608 -1.03719
0.0438802 -0.184611 -1.03726
0.0438428 -0.183615 -1.03734
0.0438055 -0.182618 -1.03741
0.0437681 -0.181622 -1.03748
0.0437505 -0.181161 -1.03802
0.0447313 -0.180625 -1.03806
0.044694 -0.179628 -1.03813
0.0446566 -0.178632 -1.03821
0.0446192 -0.177635 -1.03828
0.0435814 -0.176639 -1.03786
0.0436011 -0.177174 -1.03832
0.043544 -0.175642 -1.03793
0.0432452 -0.16767 -1.03853
0.043265 -0.168206 -1.03899
0.0442457 -0.16767 -1.03903
0.0442084 -0.166674 -1.0391
0.0437228 -0.153719 -1.04007
0.0427047 -0.153258 -1.04011
0.0437329 -0.180699 -1.03856
0.0436956 -0.179703 -1.03863
0.0436582 -0.178706 -1.03871
0.0436209 -0.17771 -1.03878
0.0442479 -0.167744 -1.04002
0.0432671 -0.16828 -1.03999
0.0427442 -0.154329 -1.04103
0.0427244 -0.153793 -1.04057
0.0432869 -0.168816 -1.04045
0.0433066 -0.169351 -1.04091
0.0442874 -0.168815 -1.04095
0.0442501 -0.167819 -1.04102
0.0427837 -0.1554 -1.04195
0.042764 -0.154864 -1.04149
0.0442896 -0.16889 -1.04194
0.0433088 -0.169426 -1.04191
0.0442522 -0.167893 -1.04202
0.0428232 -0.156471 -1.04287
0.0428035 -0.155935 -1.04241
0.0433286 -0.169961 -1.04237
0.0433483 -0.170496 -1.04283
0.0443291 -0.169961 -1.04287
0.0442917 -0.168964 -1.04294
0.0442544 -0.167968 -1.04302
0.0428628 -0.157542 -1.0438
0.042843 -0.157006 -1.04333
0.0443313 -0.170035 -1.04386
0.0433505 -0.170571 -1.04383
0.0442939 -0.169039 -1.04394
0.0442566 -0.168042 -1.04401
0.0429023 -0.158613 -1.04472
0.0428825 -0.158077 -1.04426
0.0443334 -0.17011 -1.04486
0.0433527 -0.170645 -1.04482
0.0442961 -0.169113 -1.04494
0.0442587 -0.168117 -1.04501
0.0442214 -0.16712 -1.04508
0.044184 -0.166124 -1.04516
0.0441467 -0.165127 -1.04523
0.0441093 -0.164131 -1.04531
0.044072 -0.163134 -1.04538
0.0440346 -0.162137 -1.04546
0.0439973 -0.161141 -1.04553
0.0439599 -0.160144 -1.04561
0.0429418 -0.159684 -1.04564
0.042922 -0.159148 -1.04518
0.0433351 -0.170184 -1.04536
0.0433175 -0.169723 -1.04589
0.0442982 -0.169188 -1.04593
0.0442609 -0.168191 -1.04601
0.043223 -0.167195 -1.04558
0.0432428 -0.16773 -1.04604
0.0431857 -0.166198 -1.04566
0.0431483 -0.165202 -1.04573
0.043111 -0.164205 -1.04581
0.0430736 -0.163209 -1.04588
0.0430363 -0.162212 -1.04595
0.0429989 -0.161216 -1.04603
0.0429615 -0.160219 -1.0461
0.0432999 -0.169262 -1.04643
0.0432625 -0.168266 -1.0465
0.0436951 -0.179972 -1.05566
0.0437148 -0.180507 -1.05612
0.0446956 -0.179972 -1.05616
0.0446582 -0.178975 -1.05623
0.0436577 -0.178975 -1.05573
0.0446209 -0.177979 -1.05631
0.0436204 -0.177979 -1.05581
0.0445835 -0.176982 -1.05638
0.043583 -0.176982 -1.05588
0.0445462 -0.175985 -1.05645
0.0435457 -0.175986 -1.05596
0.0435281 -0.175525 -1.05649
0.043884 -0.185029 -1.05628
0.0439037 -0.185564 -1.05674
0.0448845 -0.185029 -1.05678
0.0448472 -0.184032 -1.05686
0.0438466 -0.184032 -1.05636
0.0448098 -0.183036 -1.05693
0.0438093 -0.183036 -1.05643
0.0447725 -0.182039 -1.05701
0.0437719 -0.182039 -1.05651
0.0447351 -0.181043 -1.05708
0.0437346 -0.181043 -1.05658
0.0446978 -0.180046 -1.05715
0.0446604 -0.179049 -1.05723
0.0446231 -0.178053 -1.0573
0.0445857 -0.177056 -1.05738
0.0445483 -0.17606 -1.05745
0.0435302 -0.175599 -1.05749
0.0439235 -0.1861 -1.05721
0.0439433 -0.186635 -1.05767
0.044924 -0.1861 -1.0577
0.0448867 -0.185103 -1.05778
0.0448493 -0.184107 -1.05785
0.044812 -0.18311 -1.05793
0.0447746 -0.182113 -1.058
0.0447373 -0.181117 -1.05808
0.0446999 -0.18012 -1.05815
0.0446626 -0.179124 -1.05823
0.0446252 -0.178127 -1.0583
0.0445879 -0.177131 -1.05837
0.0445505 -0.176134 -1.05845
0.0435324 -0.175673 -1.05849
0.0440004 -0.188167 -1.05805
0.0440201 -0.188703 -1.05852
0.0450009 -0.188167 -1.05855
0.0449636 -0.187171 -1.05863
0.043963 -0.187171 -1.05813
0.0449262 -0.186174 -1.0587
0.0448888 -0.185177 -1.05878
0.0448515 -0.184181 -1.05885
0.0448141 -0.183184 -1.05893
0.0447768 -0.182188 -1.059
0.0447394 -0.181191 -1.05907
0.0447021 -0.180195 -1.05915
0.0446647 -0.179198 -1.05922
0.0446274 -0.178202 -1.0593
0.04459 -0.177205 -1.05937
0.0445527 -0.176209 -1.05945
0.0435346 -0.175748 -1.05948
0.0450031 -0.188241 -1.05955
0.0440223 -0.188777 -1.05951
0.0449657 -0.187245 -1.05962
0.0449284 -0.186248 -1.0597
0.044891 -0.185252 -1.05977
0.0448537 -0.184255 -1.05985
0.0448163 -0.183259 -1.05992
0.044779 -0.182262 -1.06
0.0447416 -0.181266 -1.06007
0.0447043 -0.180269 -1.06015
0.0446669 -0.179273 -1.06022
0.0446296 -0.178276 -1.06029
0.0435917 -0.17728 -1.05987
0.0436114 -0.177815 -1.06033
0.0435543 -0.176283 -1.05994
0.0450052 -0.188316 -1.06055
0.0440245 -0.188852 -1.06051
0.0449679 -0.187319 -1.06062
0.0449305 -0.186323 -1.0607
0.0448932 -0.185326 -1.06077
0.0448558 -0.18433 -1.06085
0.0448185 -0.183333 -1.06092
0.0447811 -0.182337 -1.06099
0.0447438 -0.18134 -1.06107
0.0447064 -0.180344 -1.06114
0.0436685 -0.179347 -1.06072
0.0436883 -0.179883 -1.06118
0.0436312 -0.178351 -1.06079
0.0440069 -0.188391 -1.06105
0.0439893 -0.187929 -1.06158
0.04497 -0.187394 -1.06162
0.0449327 -0.186397 -1.06169
0.0448953 -0.185401 -1.06177
0.0438575 -0.184404 -1.06134
0.0438772 -0.18494 -1.0618
0.0438201 -0.183408 -1.06142
0.0437828 -0.182411 -1.06149
0.0437454 -0.181415 -1.06157
0.0437081 -0.180418 -1.06164
0.0439717 -0.187468 -1.06212
0.0439343 -0.186472 -1.06219
0.043897 -0.185475 -1.06227
0.0407786 -0.155117 -1.03044
0.0407983 -0.155652 -1.03091
0.0417791 -0.155117 -1.03094
0.0417418 -0.15412 -1.03102
0.0407412 -0.15412 -1.03052
0.0417044 -0.153124 -1.03109
0.0407039 -0.153124 -1.03059
0.0416671 -0.152127 -1.03117
0.0406665 -0.152127 -1.03067
0.0416297 -0.151131 -1.03124
0.0406292 -0.151131 -1.03074
0.0406116 -0.15067 -1.03128
0.0409302 -0.159177 -1.03114
0.0409499 -0.159713 -1.0316
0.0419307 -0.159177 -1.03164
0.0418933 -0.158181 -1.03172
0.0408928 -0.158181 -1.03122
0.041856 -0.157184 -1.03179
0.0408555 -0.157184 -1.03129
0.0418186 -0.156188 -1.03187
0.0408181 -0.156188 -1.03137
0.0417813 -0.155191 -1.03194
0.0417439 -0.154195 -1.03202
0.0417066 -0.153198 -1.03209
0.0416692 -0.152202 -1.03216
0.0416319 -0.151205 -1.03224
0.040594 -0.150209 -1.03181
0.0415945 -0.150209 -1.03231
0.0405764 -0.149748 -1.03235
0.041007 -0.161245 -1.03199
0.0410268 -0.16178 -1.03245
0.0420076 -0.161245 -1.03249
0.0419702 -0.160248 -1.03257
0.0409697 -0.160248 -1.03207
0.0419329 -0.159252 -1.03264
0.0418955 -0.158255 -1.03271
0.0418582 -0.157259 -1.03279
0.0418208 -0.156262 -1.03286
0.0417834 -0.155266 -1.03294
0.0417461 -0.154269 -1.03301
0.0417087 -0.153273 -1.03309
0.0416714 -0.152276 -1.03316
0.041634 -0.151279 -1.03324
0.0415967 -0.150283 -1.03331
0.0405588 -0.149287 -1.03289
0.0415593 -0.149286 -1.03338
0.041522 -0.14829 -1.03346
0.0405215 -0.14829 -1.03296
0.0405039 -0.147829 -1.0335
0.0410839 -0.163312 -1.03284
0.0411037 -0.163848 -1.0333
0.0420844 -0.163312 -1.03334
0.0420471 -0.162316 -1.03341
0.0410465 -0.162316 -1.03291
0.0420097 -0.161319 -1.03349
0.0419724 -0.160323 -1.03356
0.041935 -0.159326 -1.03364
0.0418977 -0.15833 -1.03371
0.0418603 -0.157333 -1.03379
0.041823 -0.156337 -1.03386
0.0417856 -0.15534 -1.03394
0.0417483 -0.154343 -1.03401
0.0417109 -0.153347 -1.03408
0.0416736 -0.15235 -1.03416
0.0416362 -0.151354 -1.03423
0.0415989 -0.150357 -1.03431
0.0415615 -0.149361 -1.03438
0.0415242 -0.148364 -1.03446
0.040506 -0.147903 -1.03449
0.041721 -0.180328 -1.03257
0.0417408 -0.180863 -1.03303
0.0427216 -0.180328 -1.03307
0.0426842 -0.179331 -1.03315
0.0416837 -0.179331 -1.03265
0.0426469 -0.178334 -1.03322
0.0416463 -0.178335 -1.03272
0.0416287 -0.177874 -1.03326
0.0411234 -0.164383 -1.03376
0.0411432 -0.164919 -1.03422
0.0417504 -0.154418 -1.03501
0.0417131 -0.153421 -1.03508
0.0416757 -0.152425 -1.03516
0.0416384 -0.151428 -1.03523
0.041601 -0.150432 -1.0353
0.0415637 -0.149435 -1.03538
0.0415263 -0.148439 -1.03545
0.0405082 -0.147978 -1.03549
0.0419473 -0.186381 -1.03312
0.0419671 -0.186917 -1.03358
0.0429479 -0.186381 -1.03362
0.0429105 -0.185385 -1.0337
0.04191 -0.185385 -1.0332
0.0428731 -0.184388 -1.03377
0.0418726 -0.184388 -1.03327
0.0428358 -0.183392 -1.03384
0.0418353 -0.183392 -1.03335
0.0417979 -0.182395 -1.03342
0.0417606 -0.181399 -1.03349
0.0416112 -0.177413 -1.03379
0.0425743 -0.176416 -1.03437
0.0415738 -0.176416 -1.03387
0.042537 -0.175419 -1.03444
0.0415365 -0.17542 -1.03394
0.0424996 -0.174423 -1.03451
0.0414991 -0.174423 -1.03402
0.0424623 -0.173426 -1.03459
0.0414617 -0.173426 -1.03409
0.0424249 -0.17243 -1.03466
0.0414244 -0.17243 -1.03416
0.0423876 -0.171433 -1.03474
0.041387 -0.171433 -1.03424
0.0423502 -0.170437 -1.03481
0.0413497 -0.170437 -1.03431
0.0423129 -0.16944 -1.03489
0.0413123 -0.16944 -1.03439
0.0412947 -0.168979 -1.03492
0.0412003 -0.166451 -1.03461
0.04122 -0.166986 -1.03507
0.0422008 -0.166451 -1.03511
0.0421635 -0.165454 -1.03518
0.0411629 -0.165454 -1.03469
0.0417152 -0.153496 -1.03608
0.0416779 -0.152499 -1.03615
0.0416405 -0.151503 -1.03623
0.0416032 -0.150506 -1.0363
0.0415658 -0.14951 -1.03638
0.0415285 -0.148513 -1.03645
0.0405104 -0.148052 -1.03649
0.0431368 -0.191438 -1.03425
0.0430994 -0.190442 -1.03432
0.0420813 -0.189981 -1.03436
0.0420615 -0.189445 -1.0339
0.0420242 -0.188449 -1.03397
0.0419868 -0.187452 -1.03404
0.0425018 -0.174497 -1.03551
0.0424644 -0.173501 -1.03559
0.0424271 -0.172504 -1.03566
0.0423897 -0.171508 -1.03574
0.0423524 -0.170511 -1.03581
0.042315 -0.169515 -1.03588
0.0412772 -0.168518 -1.03546
0.0422777 -0.168518 -1.03596
0.0422403 -0.167522 -1.03603
0.0412398 -0.167522 -1.03553
0.042203 -0.166525 -1.03611
0.0416801 -0.152574 -1.03715
0.0416427 -0.151577 -1.03722
0.0416054 -0.150581 -1.0373
0.0405675 -0.149584 -1.03687
0.0405872 -0.15012 -1.03734
0.0405301 -0.148588 -1.03695
0.0422878 -0.195499 -1.03445
0.0423076 -0.196034 -1.03491
0.0432883 -0.195499 -1.03495
0.043251 -0.194502 -1.03502
0.0422505 -0.194502 -1.03452
0.0432136 -0.193506 -1.03509
0.0422131 -0.193506 -1.0346
0.0421758 -0.192509 -1.03467
0.0421384 -0.191513 -1.03474
0.0421011 -0.190516 -1.03482
0.0424666 -0.173575 -1.03658
0.0424293 -0.172579 -1.03666
0.0423919 -0.171582 -1.03673
0.0423546 -0.170586 -1.03681
0.0423172 -0.169589 -1.03688
0.0422799 -0.168593 -1.03696
0.0422425 -0.167596 -1.03703
0.0422051 -0.166599 -1.0371
0.0416822 -0.152648 -1.03815
0.0416449 -0.151652 -1.03822
0.040607 -0.150655 -1.0378
0.0406267 -0.151191 -1.03826
0.04229 -0.195573 -1.03544
0.0422724 -0.195112 -1.03598
0.0432532 -0.194577 -1.03602
0.0432158 -0.19358 -1.03609
0.0431785 -0.192584 -1.03617
0.0425061 -0.174646 -1.03751
0.0424688 -0.17365 -1.03758
0.0424314 -0.172653 -1.03766
0.0423941 -0.171657 -1.03773
0.0423567 -0.17066 -1.0378
0.0423194 -0.169663 -1.03788
0.042282 -0.168667 -1.03795
0.0422447 -0.16767 -1.03803
0.0416844 -0.152723 -1.03914
0.0406465 -0.151726 -1.03872
0.0406663 -0.152262 -1.03918
0.0422548 -0.194651 -1.03652
0.0422372 -0.19419 -1.03705
0.043218 -0.193654 -1.03709
0.0421801 -0.192658 -1.03666
0.0421999 -0.193194 -1.03713
0.0421625 -0.192197 -1.0372
0.0431433 -0.191661 -1.03724
0.0431059 -0.190665 -1.03731
0.0430686 -0.189668 -1.03739
0.0430312 -0.188672 -1.03746
0.0429939 -0.187675 -1.03754
0.0429565 -0.186679 -1.03761
0.0429192 -0.185682 -1.03768
0.0428818 -0.184686 -1.03776
0.0428445 -0.183689 -1.03783
0.0428071 -0.182693 -1.03791
0.0427698 -0.181696 -1.03798
0.042583 -0.176714 -1.03835
0.0425456 -0.175717 -1.03843
0.0425083 -0.174721 -1.0385
0.0424709 -0.173724 -1.03858
0.0424336 -0.172727 -1.03865
0.0423962 -0.171731 -1.03873
0.0423589 -0.170734 -1.0388
0.0423215 -0.169738 -1.03888
0.0422842 -0.168741 -1.03895
0.0407058 -0.153333 -1.0401
0.040686 -0.152797 -1.03964
0.0422196 -0.193729 -1.03759
0.0421449 -0.191736 -1.03774
0.0421076 -0.19074 -1.03781
0.0420702 -0.189743 -1.03788
0.0420526 -0.189282 -1.03842
0.0430334 -0.188746 -1.03846
0.042996 -0.18775 -1.03853
0.0429587 -0.186753 -1.03861
0.0429213 -0.185757 -1.03868
0.042884 -0.18476 -1.03876
0.0428466 -0.183764 -1.03883
0.0428093 -0.182767 -1.03891
0.0427719 -0.181771 -1.03898
0.0427346 -0.180774 -1.03905
0.0426972 -0.179778 -1.03913
0.0426599 -0.178781 -1.0392
0.0426225 -0.177785 -1.03928
0.0425852 -0.176788 -1.03935
0.0425478 -0.175791 -1.03943
0.0425105 -0.174795 -1.0395
0.0424731 -0.173798 -1.03958
0.0424358 -0.172802 -1.03965
0.0423984 -0.171805 -1.03972
0.0423611 -0.170809 -1.0398
0.0423237 -0.169812 -1.03987
0.0422864 -0.168816 -1.03995
0.0417261 -0.153868 -1.04106
0.040708 -0.153407 -1.0411
0.042035 -0.188821 -1.03896
0.0419977 -0.187824 -1.03903
0.0419603 -0.186828 -1.03911
0.041923 -0.185831 -1.03918
0.0418856 -0.184835 -1.03925
0.0418483 -0.183838 -1.03933
0.0418109 -0.182842 -1.0394
0.0417736 -0.181845 -1.03948
0.041756 -0.181384 -1.04001
0.0427367 -0.180849 -1.04005
0.0426994 -0.179852 -1.04013
0.042662 -0.178855 -1.0402
0.0426247 -0.177859 -1.04027
0.0425873 -0.176862 -1.04035
0.0415494 -0.175866 -1.03992
0.0415692 -0.176402 -1.04039
0.0415121 -0.17487 -1.04
0.0414945 -0.174409 -1.04053
0.0424753 -0.173873 -1.04057
0.0424379 -0.172876 -1.04065
0.0424006 -0.17188 -1.04072
0.0423632 -0.170883 -1.0408
0.0423259 -0.169887 -1.04087
0.0407848 -0.155475 -1.04195
0.0407651 -0.154939 -1.04149
0.0407277 -0.153943 -1.04156
0.0417384 -0.180923 -1.04055
0.041701 -0.179927 -1.04062
0.0416637 -0.17893 -1.0407
0.0416263 -0.177934 -1.04077
0.041589 -0.176937 -1.04085
0.0424774 -0.173947 -1.04157
0.0414967 -0.174483 -1.04153
0.0424401 -0.172951 -1.04164
0.0424027 -0.171954 -1.04172
0.0423654 -0.170958 -1.04179
0.042328 -0.169961 -1.04187
0.0408243 -0.156546 -1.04287
0.0408046 -0.15601 -1.04241
0.0415164 -0.175018 -1.04199
0.0415362 -0.175554 -1.04245
0.042517 -0.175018 -1.04249
0.0424796 -0.174022 -1.04257
0.0424423 -0.173025 -1.04264
0.0424049 -0.172029 -1.04272
0.0423676 -0.171032 -1.04279
0.0408639 -0.157616 -1.04379
0.0408441 -0.157081 -1.04333
0.0425191 -0.175093 -1.04349
0.0415384 -0.175628 -1.04345
0.0424818 -0.174096 -1.04356
0.0424444 -0.1731 -1.04364