<VTKFile type="UnstructuredGrid" version="0.1" byte_order="BigEndian">
  <UnstructuredGrid>
    <Piece NumberOfPoints="13528" NumberOfCells="27056">
      <PointData>
        <DataArray type="Float64" Name="position" NumberOfComponents="3" format="ascii">
0.0596442 -0.172063 -1.03602
0.0596635 -0.172603 -1.03647
0.0606443 -0.172068 -1.03652
0.0596261 -0.171607 -1.03656
0.0596827 -0.173143 -1.03693
0.0597019 -0.173683 -1.03739
0.0606827 -0.173148 -1.03743
0.0606454 -0.172152 -1.03752
0.059608 -0.171152 -1.0371
0.060608 -0.171157 -1.0376
0.0605707 -0.170161 -1.03768
0.0595707 -0.170156 -1.03718
0.0595526 -0.1697 -1.03772
0.0606838 -0.173233 -1.03843
0.059703 -0.173768 -1.03838
0.0606465 -0.172237 -1.03851
0.0606091 -0.171241 -1.0386
0.0605718 -0.170245 -1.03868
0.0595345 -0.169245 -1.03826
0.0605345 -0.16925 -1.03876
0.0595163 -0.168789 -1.03881
0.0596849 -0.173312 -1.03892
0.0596668 -0.172856 -1.03946
0.0606476 -0.172321 -1.03951
0.0606103 -0.171326 -1.03959
0.0605729 -0.17033 -1.03968
0.0605356 -0.169334 -1.03976
0.0595175 -0.168874 -1.0398
0.0596487 -0.172401 -1.04
0.0596114 -0.171405 -1.04009
0.0595933 -0.17095 -1.04063
0.060574 -0.170414 -1.04067
0.0595367 -0.169414 -1.04026
0.0595559 -0.169954 -1.04071
0.0595751 -0.170494 -1.04117
0.0576816 -0.173049 -1.03493
0.0577008 -0.173589 -1.03539
0.0586816 -0.173054 -1.03543
0.0586442 -0.172058 -1.03552
0.0576442 -0.172053 -1.03502
0.0576261 -0.171597 -1.03556
0.05772 -0.174129 -1.03585
0.0577393 -0.174669 -1.0363
0.05872 -0.174134 -1.03635
0.0586827 -0.173138 -1.03643
0.058608 -0.171147 -1.0366
0.057608 -0.171142 -1.0361
0.0575899 -0.170686 -1.03664
0.0587211 -0.174218 -1.03734
0.0577404 -0.174754 -1.0373
0.057591 -0.170771 -1.03764
0.0585718 -0.170235 -1.03768
0.0587223 -0.174303 -1.03834
0.0577415 -0.174838 -1.03829
0.0575729 -0.170315 -1.03818
0.0575548 -0.169859 -1.03872
0.0585356 -0.169324 -1.03876
0.0587234 -0.174387 -1.03933
0.0577426 -0.174923 -1.03929
0.058686 -0.173392 -1.03942
0.0585367 -0.169409 -1.03976
0.0575559 -0.169944 -1.03971
0.0577245 -0.174467 -1.03983
0.0577064 -0.174011 -1.04037
0.0586872 -0.173476 -1.04042
0.0586498 -0.17248 -1.0405
0.0586125 -0.171485 -1.04058
0.0575944 -0.171024 -1.04062
0.0575751 -0.170484 -1.04017
0.0585751 -0.170489 -1.04067
0.0576883 -0.173556 -1.04091
0.0576509 -0.17256 -1.041
0.0576136 -0.171564 -1.04108
0.0556816 -0.173039 -1.03393
0.0557008 -0.173579 -1.03439
0.0566816 -0.173044 -1.03443
0.0556634 -0.172583 -1.03447
0.05572 -0.174119 -1.03484
0.0557392 -0.174659 -1.0353
0.05672 -0.174124 -1.03535
0.0556453 -0.172128 -1.03501
0.0556272 -0.171672 -1.03555
0.0557404 -0.174744 -1.0363
0.0556091 -0.171216 -1.03609
0.055591 -0.170761 -1.03664
0.0557596 -0.175284 -1.03675
0.0557788 -0.175824 -1.03721
0.0567596 -0.175289 -1.03725
0.0555921 -0.170845 -1.03763
0.0567607 -0.175373 -1.03825
0.0557799 -0.175908 -1.03821
0.056574 -0.170395 -1.03867
0.0555932 -0.17093 -1.03863
0.0567618 -0.175458 -1.03925
0.055781 -0.175993 -1.0392
0.0565751 -0.170479 -1.03967
0.0555943 -0.171014 -1.03962
0.0557629 -0.175537 -1.03974
0.0557448 -0.175082 -1.04028
0.0567256 -0.174546 -1.04033
0.0555955 -0.171099 -1.04062
0.0557267 -0.174626 -1.04082
0.0556894 -0.17363 -1.04091
0.0556712 -0.173175 -1.04145
0.056652 -0.17264 -1.04149
0.0556339 -0.172179 -1.04153
0.0556147 -0.171639 -1.04108
0.0556531 -0.172719 -1.04199
0.0546827 -0.173118 -1.03443
0.0537585 -0.175189 -1.03476
0.0537777 -0.17573 -1.03521
0.0547585 -0.175194 -1.03526
0.0537211 -0.174194 -1.03484
0.0536838 -0.173198 -1.03493
0.0536657 -0.172742 -1.03547
0.0546464 -0.172207 -1.03551
0.0537969 -0.17627 -1.03567
0.0538161 -0.17681 -1.03612
0.0547969 -0.176275 -1.03617
0.0547596 -0.175279 -1.03625
0.0536475 -0.172287 -1.03601
0.0536294 -0.171831 -1.03655
0.0546102 -0.171296 -1.03659
0.054798 -0.176359 -1.03716
0.0538172 -0.176894 -1.03712
0.0546113 -0.17138 -1.03759
0.0536305 -0.171916 -1.03754
0.0547991 -0.176444 -1.03816
0.0538184 -0.176979 -1.03812
0.0536124 -0.17146 -1.03808
0.0535943 -0.171004 -1.03862
0.0538003 -0.176523 -1.03866
0.0537821 -0.176067 -1.0392
0.0535954 -0.171089 -1.03962
0.053764 -0.175612 -1.03974
0.0537459 -0.175156 -1.04028
0.0535966 -0.171173 -1.04062
0.0537278 -0.174701 -1.04082
0.0537097 -0.174245 -1.04136
0.0546905 -0.17371 -1.0414
0.053635 -0.172254 -1.04153
0.0536158 -0.171713 -1.04107
0.0536916 -0.173789 -1.0419
0.0536542 -0.172794 -1.04198
0.0517573 -0.175095 -1.03276
0.0517765 -0.175635 -1.03322
0.0527573 -0.1751 -1.03326
0.05272 -0.174104 -1.03334
0.05172 -0.174099 -1.03284
0.0517019 -0.173644 -1.03338
0.0517958 -0.176175 -1.03367
0.051815 -0.176715 -1.03413
0.0527958 -0.17618 -1.03417
0.0527584 -0.175184 -1.03426
0.0527211 -0.174189 -1.03434
0.0516838 -0.173188 -1.03392
0.0526838 -0.173193 -1.03443
0.0516656 -0.172732 -1.03447
0.0527969 -0.176265 -1.03517
0.0518161 -0.1768 -1.03512
0.0516668 -0.172817 -1.03546
0.0518172 -0.176884 -1.03612
0.0516486 -0.172361 -1.036
0.0516305 -0.171906 -1.03654
0.0518183 -0.176969 -1.03712
0.0516316 -0.17199 -1.03754
0.0518195 -0.177053 -1.03811
0.0526135 -0.17154 -1.03858
0.0516328 -0.172075 -1.03854
0.0518014 -0.176598 -1.03865
0.0517832 -0.176142 -1.03919
0.0516146 -0.171619 -1.03908
0.0515965 -0.171163 -1.03962
0.0517651 -0.175686 -1.03973
0.051747 -0.175231 -1.04027
0.051635 -0.172244 -1.04053
0.0516158 -0.171704 -1.04007
0.0526158 -0.171709 -1.04057
0.0527289 -0.17478 -1.04132
0.0517481 -0.175315 -1.04127
0.0516361 -0.172328 -1.04152
0.05173 -0.17486 -1.04181
0.0516927 -0.173864 -1.0419
0.0516553 -0.172868 -1.04198
0.0497584 -0.17517 -1.03276
0.0497776 -0.17571 -1.03321
0.0497211 -0.174174 -1.03284
0.049703 -0.173718 -1.03338
0.0497969 -0.17625 -1.03367
0.0498161 -0.17679 -1.03412
0.0496849 -0.173263 -1.03392
0.0496667 -0.172807 -1.03446
0.0498172 -0.176874 -1.03512
0.0496679 -0.172892 -1.03546
0.0498183 -0.176959 -1.03612
0.0496497 -0.172436 -1.036
0.0496316 -0.17198 -1.03654
0.0498194 -0.177043 -1.03711
0.0496327 -0.172065 -1.03753
0.0498206 -0.177128 -1.03811
0.0506146 -0.171614 -1.03858
0.0496146 -0.171609 -1.03808
0.0495965 -0.171154 -1.03862
0.0508025 -0.176677 -1.03915
0.0498217 -0.177212 -1.03911
0.0495976 -0.171238 -1.03961
0.0498036 -0.176757 -1.03965
0.0497855 -0.176301 -1.04019
0.0507662 -0.175766 -1.04023
0.0506169 -0.171783 -1.04057
0.0495988 -0.171323 -1.04061
0.0507673 -0.175851 -1.04123
0.0497866 -0.176386 -1.04118
0.050618 -0.171868 -1.04156
0.0495999 -0.171407 -1.04161
0.0497685 -0.17593 -1.04172
0.0497503 -0.175474 -1.04226
0.0507311 -0.174939 -1.04231
0.0506938 -0.173944 -1.04239
0.0506564 -0.172948 -1.04248
0.0496383 -0.172487 -1.04252
0.0496191 -0.171947 -1.04206
0.0497322 -0.175019 -1.0428
0.0496949 -0.174023 -1.04289
0.0496576 -0.173027 -1.04297
0.0477595 -0.175244 -1.03275
0.0477787 -0.175784 -1.03321
0.0477414 -0.174789 -1.03329
0.0487222 -0.174253 -1.03334
0.047798 -0.176324 -1.03366
0.0478172 -0.176865 -1.03412
0.0477233 -0.174333 -1.03383
0.0477052 -0.173877 -1.03437
0.048686 -0.173342 -1.03442
0.0478183 -0.176949 -1.03512
0.0476871 -0.173422 -1.03491
0.047669 -0.172966 -1.03545
0.0478194 -0.177034 -1.03611
0.0476508 -0.172511 -1.03599
0.0476327 -0.172055 -1.03653
0.0478205 -0.177118 -1.03711
0.0486146 -0.171604 -1.03758
0.0476146 -0.171599 -1.03707
0.0475965 -0.171144 -1.03762
0.0478217 -0.177203 -1.0381
0.0475976 -0.171228 -1.03861
0.0478228 -0.177287 -1.0391
0.0485795 -0.170778 -1.03965
0.0475795 -0.170773 -1.03915
0.0475614 -0.170317 -1.03969
0.0488047 -0.176836 -1.04014
0.0478239 -0.177372 -1.0401
0.0485806 -0.170862 -1.04065
0.0475625 -0.170401 -1.04069
0.0488058 -0.176921 -1.04114
0.047825 -0.177456 -1.04109
0.047601 -0.171482 -1.0416
0.0475817 -0.170942 -1.04114
0.0488069 -0.177005 -1.04213
0.0478261 -0.177541 -1.04209
0.0487696 -0.17601 -1.04222
0.0486202 -0.172027 -1.04256
0.0476021 -0.171566 -1.0426
0.047808 -0.177085 -1.04263
0.0477899 -0.176629 -1.04317
0.0487707 -0.176094 -1.04322
0.0487333 -0.175098 -1.0433
0.048696 -0.174103 -1.04338
0.0486587 -0.173107 -1.04347
0.0476405 -0.172646 -1.04351
0.0476213 -0.172106 -1.04305
0.0477718 -0.176174 -1.04371
0.0477344 -0.175178 -1.0438
0.0476971 -0.174182 -1.04388
0.0476598 -0.173186 -1.04397
0.0467606 -0.175324 -1.03325
0.0457991 -0.176399 -1.03366
0.0458183 -0.176939 -1.03412
0.0457617 -0.175403 -1.03374
0.0457244 -0.174408 -1.03383
0.0457063 -0.173952 -1.03437
0.0458194 -0.177024 -1.03511
0.0456882 -0.173496 -1.03491
0.0466508 -0.172506 -1.03549
0.0456508 -0.172501 -1.03499
0.0456327 -0.172045 -1.03553
0.0458386 -0.177564 -1.03557
0.0458579 -0.178104 -1.03602
0.0468387 -0.177569 -1.03607
0.0466146 -0.171594 -1.03657
0.0456146 -0.171589 -1.03607
0.0455965 -0.171134 -1.03661
0.0468398 -0.177653 -1.03706
0.045859 -0.178188 -1.03702
0.0465784 -0.170683 -1.03766
0.0455784 -0.170678 -1.03716
0.0455603 -0.170223 -1.0377
0.0468409 -0.177738 -1.03806
0.0458601 -0.178273 -1.03802
0.0465795 -0.170768 -1.03865
0.0455422 -0.169767 -1.03824
0.0465422 -0.169772 -1.03874
0.045524 -0.169311 -1.03878
0.046842 -0.177822 -1.03906
0.0458612 -0.178357 -1.03901
0.0465433 -0.169856 -1.03973
0.0455252 -0.169396 -1.03977
0.0468431 -0.177907 -1.04005
0.0458623 -0.178442 -1.04001
0.0465444 -0.169941 -1.04073
0.0455263 -0.16948 -1.04077
0.0458816 -0.178982 -1.04047
0.0459008 -0.179522 -1.04092
0.0468816 -0.178987 -1.04097
0.0468442 -0.177991 -1.04105
0.0465828 -0.171021 -1.04164
0.0465455 -0.170025 -1.04173
0.0455274 -0.169565 -1.04177
0.0468827 -0.179071 -1.04196
0.0459019 -0.179607 -1.04192
0.0468453 -0.178076 -1.04205
0.046584 -0.171106 -1.04264
0.0455466 -0.170105 -1.04222
0.0455658 -0.170645 -1.04268
0.0458838 -0.179151 -1.04246
0.0458657 -0.178695 -1.043
0.0468465 -0.17816 -1.04304
0.0468091 -0.177164 -1.04313
0.0466224 -0.172186 -1.04355
0.0456043 -0.171725 -1.04359
0.0455851 -0.171185 -1.04313
0.0458476 -0.17824 -1.04354
0.0458102 -0.177244 -1.04362
0.0457921 -0.176788 -1.04416
0.0467729 -0.176253 -1.04421
0.0467356 -0.175258 -1.04429
0.0466982 -0.174262 -1.04438
0.0466609 -0.173266 -1.04446
0.0456428 -0.172805 -1.0445
0.0456235 -0.172265 -1.04405
0.045774 -0.176333 -1.0447
0.0457367 -0.175337 -1.04479
0.0456993 -0.174341 -1.04487
0.045662 -0.173346 -1.04496
0.0438002 -0.176474 -1.03365
0.0438194 -0.177014 -1.03411
0.0437628 -0.175478 -1.03374
0.0437255 -0.174482 -1.03382
0.0446882 -0.173491 -1.03441
0.0436882 -0.173487 -1.03391
0.04367 -0.173031 -1.03445
0.0438386 -0.177554 -1.03457
0.0438579 -0.178094 -1.03502
0.0448386 -0.177559 -1.03507
0.0436519 -0.172575 -1.03499
0.0446146 -0.171585 -1.03557
0.0436146 -0.17158 -1.03507
0.0445773 -0.170589 -1.03566
0.0435772 -0.170584 -1.03516
0.0435591 -0.170128 -1.0357
0.043859 -0.178179 -1.03602
0.0445784 -0.170673 -1.03665
0.043541 -0.169673 -1.03624
0.044541 -0.169678 -1.03674
0.0435229 -0.169217 -1.03678
0.0438601 -0.178263 -1.03702
0.0445421 -0.169762 -1.03774
0.0435048 -0.168761 -1.03732
0.0445048 -0.168766 -1.03782
0.0444675 -0.167771 -1.0379
0.0434675 -0.167766 -1.0374
0.0434493 -0.16731 -1.03794
0.0438793 -0.178803 -1.03747
0.0438985 -0.179343 -1.03793
0.0448793 -0.178808 -1.03797
0.0445059 -0.168851 -1.03882
0.0444686 -0.167855 -1.0389
0.0434505 -0.167395 -1.03894
0.0448804 -0.178893 -1.03897
0.0438997 -0.179428 -1.03892
0.044507 -0.168935 -1.03981
0.0444697 -0.16794 -1.0399
0.0434516 -0.167479 -1.03994
0.0439189 -0.179968 -1.03938
0.0439381 -0.180508 -1.03984
0.0449189 -0.179973 -1.03988
0.0448816 -0.178977 -1.03996
0.0445082 -0.16902 -1.04081
0.0444708 -0.168024 -1.04089
0.0434527 -0.167564 -1.04093
0.04492 -0.180057 -1.04088
0.0439392 -0.180592 -1.04083
0.0445093 -0.169104 -1.04181
0.0434719 -0.168104 -1.04139
0.0434911 -0.168644 -1.04185
0.0449211 -0.180142 -1.04187
0.0439403 -0.180677 -1.04183
0.0445477 -0.170185 -1.04272
0.0435296 -0.169724 -1.04276
0.0435104 -0.169184 -1.0423
0.0449222 -0.180226 -1.04287
0.0439415 -0.180761 -1.04283
0.0448849 -0.179231 -1.04295
0.0445862 -0.171265 -1.04363
0.0435681 -0.170804 -1.04367
0.0435488 -0.170264 -1.04321
0.0449234 -0.180311 -1.04387
0.0439426 -0.180846 -1.04382
0.044886 -0.179315 -1.04395
0.0448487 -0.178319 -1.04403
0.0448113 -0.177324 -1.04412
0.0446246 -0.172345 -1.04454
0.0436065 -0.171884 -1.04458
0.0435873 -0.171344 -1.04413
0.0439245 -0.18039 -1.04436
0.0438871 -0.179395 -1.04445
0.0438498 -0.178399 -1.04453
0.0438124 -0.177403 -1.04462
0.0437751 -0.176407 -1.0447
0.0437378 -0.175412 -1.04478
0.0437004 -0.174416 -1.04487
0.0436631 -0.17342 -1.04495
0.0436257 -0.172424 -1.04504
0.0418386 -0.177544 -1.03357
0.0418578 -0.178084 -1.03402
0.0428386 -0.177549 -1.03407
0.0418013 -0.176548 -1.03365
0.0417639 -0.175553 -1.03374
0.0417266 -0.174557 -1.03382
0.0416893 -0.173561 -1.0339
0.0426519 -0.17257 -1.03449
0.0416519 -0.172565 -1.03399
0.0426146 -0.171575 -1.03457
0.0416146 -0.17157 -1.03407
0.0425772 -0.170579 -1.03466
0.0415772 -0.170574 -1.03416
0.0425399 -0.169583 -1.03474
0.0415399 -0.169578 -1.03424
0.0425026 -0.168587 -1.03483
0.0415026 -0.168583 -1.03433
0.0414844 -0.168127 -1.03487
0.0425119 -0.195552 -1.03304
0.0425311 -0.196092 -1.0335
0.0435119 -0.195557 -1.03354
0.0434745 -0.194561 -1.03363
0.0424745 -0.194556 -1.03313
0.0434372 -0.193565 -1.03371
0.0424372 -0.19356 -1.03321
0.0433998 -0.192569 -1.0338
0.0423998 -0.192564 -1.0333
0.0433625 -0.191574 -1.03388
0.0423625 -0.191569 -1.03338
0.0433252 -0.190578 -1.03396
0.0423252 -0.190573 -1.03346
0.042307 -0.190117 -1.03401
0.041859 -0.178169 -1.03502
0.042541 -0.169668 -1.03574
0.0425037 -0.168672 -1.03582
0.0414663 -0.167671 -1.03541
0.0424663 -0.167676 -1.03591
0.0414482 -0.167216 -1.03595
0.042849 -0.204598 -1.03328
0.0428683 -0.205138 -1.03373
0.043849 -0.204603 -1.03378
0.0438117 -0.203607 -1.03386
0.0428117 -0.203602 -1.03336
0.0437744 -0.202611 -1.03395
0.0427744 -0.202606 -1.03345
0.043737 -0.201615 -1.03403
0.042737 -0.20161 -1.03353
0.0436997 -0.20062 -1.03412
0.0426997 -0.200615 -1.03362
0.0436623 -0.199624 -1.0342
0.0426623 -0.199619 -1.0337
0.043625 -0.198628 -1.03429
0.042625 -0.198623 -1.03379
0.0435877 -0.197632 -1.03437
0.0425877 -0.197628 -1.03387
0.0435503 -0.196637 -1.03445
0.0425503 -0.196632 -1.03395
0.043513 -0.195641 -1.03454
0.0434756 -0.194645 -1.03462
0.0434383 -0.19365 -1.03471
0.043401 -0.192654 -1.03479
0.0433636 -0.191658 -1.03488
0.0433263 -0.190662 -1.03496
0.0422889 -0.189662 -1.03455
0.0432889 -0.189667 -1.03505
0.0432516 -0.188671 -1.03513
0.0422516 -0.188666 -1.03463
0.0422335 -0.18821 -1.03517
0.0418782 -0.178709 -1.03547
0.0418974 -0.179249 -1.03593
0.0428782 -0.178714 -1.03598
0.0425048 -0.168756 -1.03682
0.0424675 -0.167761 -1.0369
0.0414301 -0.16676 -1.03649
0.0424301 -0.166765 -1.03699
0.041412 -0.166304 -1.03703
0.0428875 -0.205678 -1.03419
0.0429067 -0.206218 -1.03465
0.0438875 -0.205683 -1.03469
0.0438502 -0.204687 -1.03478
0.0438128 -0.203691 -1.03486
0.0437755 -0.202696 -1.03494
0.0437381 -0.2017 -1.03503
0.0437008 -0.200704 -1.03511
0.0436635 -0.199708 -1.0352
0.0436261 -0.198713 -1.03528
0.0435888 -0.197717 -1.03537
0.0435514 -0.196721 -1.03545
0.0435141 -0.195726 -1.03554
0.0434768 -0.19473 -1.03562
0.0434394 -0.193734 -1.0357
0.0434021 -0.192738 -1.03579
0.0433647 -0.191743 -1.03587
0.0433274 -0.190747 -1.03596
0.0432901 -0.189751 -1.03604
0.0432527 -0.188755 -1.03613
0.0422154 -0.187755 -1.03571
0.0432154 -0.18776 -1.03621
0.0421973 -0.187299 -1.03625
0.0428793 -0.178798 -1.03697
0.0418985 -0.179333 -1.03693
0.0424312 -0.166849 -1.03799
0.0414131 -0.166389 -1.03803
0.0428886 -0.205762 -1.03519
0.0428705 -0.205307 -1.03573
0.0438513 -0.204772 -1.03577
0.0438139 -0.203776 -1.03586
0.0437766 -0.20278 -1.03594
0.0437392 -0.201784 -1.03602
0.0437019 -0.200789 -1.03611
0.0436646 -0.199793 -1.03619
0.0436272 -0.198797 -1.03628
0.0435899 -0.197801 -1.03636
0.0435525 -0.196806 -1.03645
0.0435152 -0.19581 -1.03653
0.0434779 -0.194814 -1.03662
0.0434405 -0.193819 -1.0367
0.0434032 -0.192823 -1.03679
0.0433658 -0.191827 -1.03687
0.0433285 -0.190831 -1.03695
0.0432912 -0.189836 -1.03704
0.0432538 -0.18884 -1.03712
0.0422165 -0.187839 -1.03671
0.0422357 -0.188379 -1.03716
0.0419178 -0.179873 -1.03738
0.041937 -0.180414 -1.03784
0.0429178 -0.179878 -1.03788
0.0424323 -0.166934 -1.03898
0.0414142 -0.166473 -1.03902
0.0428524 -0.204851 -1.03627
0.042815 -0.203855 -1.03635
0.0427777 -0.20286 -1.03644
0.0427404 -0.201864 -1.03652
0.042703 -0.200868 -1.03661
0.0426657 -0.199872 -1.03669
0.0426283 -0.198877 -1.03677
0.042591 -0.197881 -1.03686
0.0425537 -0.196885 -1.03694
0.0425163 -0.19589 -1.03703
0.042479 -0.194894 -1.03711
0.0424609 -0.194438 -1.03765
0.0434416 -0.193903 -1.0377
0.0434043 -0.192907 -1.03778
0.043367 -0.191912 -1.03787
0.0433296 -0.190916 -1.03795
0.0422923 -0.189915 -1.03753
0.0423115 -0.190455 -1.03799
0.0422549 -0.188919 -1.03762
0.0419562 -0.180954 -1.0383
0.0419754 -0.181494 -1.03875
0.0429562 -0.180959 -1.0388
0.0429189 -0.179963 -1.03888
0.0424335 -0.167018 -1.03998
0.0414153 -0.166558 -1.04002
0.0424428 -0.193983 -1.03819
0.0424054 -0.192987 -1.03828
0.0423681 -0.191991 -1.03836
0.0423307 -0.190995 -1.03845
0.0429573 -0.181043 -1.03979
0.0419766 -0.181578 -1.03975
0.0414538 -0.167638 -1.04093
0.0414346 -0.167098 -1.04047
0.0419958 -0.182118 -1.0402
0.042015 -0.182659 -1.04066
0.0429958 -0.182123 -1.0407
0.0429585 -0.181128 -1.04079
0.0414922 -0.168718 -1.04184
0.041473 -0.168178 -1.04139
0.0429969 -0.182208 -1.0417
0.0420161 -0.182743 -1.04166
0.0429596 -0.181212 -1.04178
0.0415307 -0.169799 -1.04275
0.0415115 -0.169258 -1.0423
0.0420354 -0.183283 -1.04211
0.0420546 -0.183823 -1.04257
0.0430354 -0.183288 -1.04261
0.042998 -0.182292 -1.0427
0.0429607 -0.181297 -1.04278
0.0415692 -0.170879 -1.04367
0.0415499 -0.170339 -1.04321
0.0430365 -0.183373 -1.04361
0.0420557 -0.183908 -1.04356
0.0429991 -0.182377 -1.04369
0.0429618 -0.181381 -1.04378
0.0416076 -0.171959 -1.04458
0.0415884 -0.171419 -1.04412
0.0430376 -0.183457 -1.0446
0.0420568 -0.183992 -1.04456
0.0430003 -0.182461 -1.04469
0.0429629 -0.181466 -1.04477
0.0429256 -0.18047 -1.04486
0.0428882 -0.179474 -1.04494
0.0428509 -0.178478 -1.04503
0.0428136 -0.177483 -1.04511
0.0427762 -0.176487 -1.0452
0.0427389 -0.175491 -1.04528
0.0427015 -0.174495 -1.04537
0.0426642 -0.1735 -1.04545
0.0416461 -0.173039 -1.04549
0.0416268 -0.172499 -1.04503
0.0420387 -0.183537 -1.0451
0.0420206 -0.183081 -1.04564
0.0430014 -0.182546 -1.04569
0.042964 -0.18155 -1.04577
0.0419267 -0.180549 -1.04535
0.0419459 -0.18109 -1.04581
0.0418893 -0.179554 -1.04544
0.041852 -0.178558 -1.04552
0.0418147 -0.177562 -1.04561
0.0417773 -0.176567 -1.04569
0.04174 -0.175571 -1.04578
0.0417026 -0.174575 -1.04586
0.0416653 -0.173579 -1.04595
0.0420025 -0.182625 -1.04618
0.0419651 -0.18163 -1.04627
0.042387 -0.193428 -1.0553
0.0424063 -0.193968 -1.05576
0.043387 -0.193432 -1.0558
0.0433497 -0.192437 -1.05589
0.0423497 -0.192432 -1.05539
0.0433124 -0.191441 -1.05597
0.0423123 -0.191436 -1.05547
0.043275 -0.190445 -1.05606
0.042275 -0.19044 -1.05555
0.0432377 -0.18945 -1.05614
0.0422377 -0.189445 -1.05564
0.0422196 -0.188989 -1.05618
0.0425748 -0.198491 -1.05588
0.0425941 -0.199031 -1.05633
0.0435749 -0.198496 -1.05638
0.0435375 -0.1975 -1.05646
0.0425375 -0.197495 -1.05596
0.0435002 -0.196504 -1.05654
0.0425002 -0.196499 -1.05604
0.0434628 -0.195508 -1.05663
0.0424628 -0.195503 -1.05613
0.0434255 -0.194513 -1.05671
0.0424255 -0.194508 -1.05621
0.0433882 -0.193517 -1.0568
0.0433508 -0.192521 -1.05688
0.0433135 -0.191526 -1.05697
0.0432761 -0.19053 -1.05705
0.0432388 -0.189534 -1.05714
0.0422207 -0.189074 -1.05718
0.0426133 -0.199571 -1.05679
0.0426325 -0.200111 -1.05724
0.0436133 -0.199576 -1.05729
0.043576 -0.19858 -1.05737
0.0435386 -0.197584 -1.05746
0.0435013 -0.196589 -1.05754
0.0434639 -0.195593 -1.05763
0.0434266 -0.194597 -1.05771
0.0433893 -0.193601 -1.05779
0.0433519 -0.192606 -1.05788
0.0433146 -0.19161 -1.05796
0.0432772 -0.190614 -1.05805
0.0432399 -0.189619 -1.05813
0.0422218 -0.189158 -1.05817
0.0426891 -0.201647 -1.05761
0.0427083 -0.202187 -1.05807
0.0436891 -0.201652 -1.05812
0.0436518 -0.200656 -1.0582
0.0426518 -0.200651 -1.0577
0.0436144 -0.19966 -1.05828
0.0435771 -0.198665 -1.05837
0.0435397 -0.197669 -1.05845
0.0435024 -0.196673 -1.05854
0.0434651 -0.195677 -1.05862
0.0434277 -0.194682 -1.05871
0.0433904 -0.193686 -1.05879
0.043353 -0.19269 -1.05888
0.0433157 -0.191694 -1.05896
0.0432784 -0.190699 -1.05904
0.043241 -0.189703 -1.05913
0.0422229 -0.189242 -1.05917
0.0436902 -0.201736 -1.05911
0.0427094 -0.202271 -1.05907
0.0436529 -0.200741 -1.0592
0.0436155 -0.199745 -1.05928
0.0435782 -0.198749 -1.05937
0.0435409 -0.197753 -1.05945
0.0435035 -0.196758 -1.05953
0.0434662 -0.195762 -1.05962
0.0434288 -0.194766 -1.0597
0.0433915 -0.19377 -1.05979
0.0433542 -0.192775 -1.05987
0.0433168 -0.191779 -1.05996
0.0422795 -0.190778 -1.05954
0.0422987 -0.191318 -1.06
0.0422421 -0.189783 -1.05963
0.0436913 -0.201821 -1.06011
0.0427106 -0.202356 -1.06006
0.043654 -0.200825 -1.06019
0.0436167 -0.199829 -1.06028
0.0435793 -0.198834 -1.06036
0.043542 -0.197838 -1.06045
0.0435046 -0.196842 -1.06053
0.0434673 -0.195846 -1.06061
0.04343 -0.194851 -1.0607
0.0433926 -0.193855 -1.06078
0.0423553 -0.192854 -1.06037
0.0423745 -0.193394 -1.06082
0.0423179 -0.191859 -1.06045
0.0426924 -0.2019 -1.0606
0.0426743 -0.201445 -1.06114
0.0436551 -0.20091 -1.06119
0.0436178 -0.199914 -1.06127
0.0435804 -0.198918 -1.06136
0.0425431 -0.197917 -1.06094
0.0425623 -0.198457 -1.0614
0.0425057 -0.196922 -1.06103
0.0424684 -0.195926 -1.06111
0.0424311 -0.19493 -1.0612
0.0423937 -0.193934 -1.06128
0.0426562 -0.200989 -1.06169
0.0426189 -0.199993 -1.06177
0.0425815 -0.198998 -1.06185
0.0394992 -0.168319 -1.03034
0.0395184 -0.168859 -1.03079
0.0404992 -0.168324 -1.03084
0.0404619 -0.167328 -1.03092
0.0394619 -0.167323 -1.03042
0.0404245 -0.166333 -1.03101
0.0394245 -0.166328 -1.03051
0.0403872 -0.165337 -1.03109
0.0393872 -0.165332 -1.03059
0.0403498 -0.164341 -1.03118
0.0393498 -0.164336 -1.03067
0.0393317 -0.163881 -1.03122
0.0396497 -0.172387 -1.031
0.0396689 -0.172927 -1.03145
0.0406497 -0.172391 -1.0315
0.0406123 -0.171396 -1.03158
0.0396123 -0.171391 -1.03108
0.040575 -0.1704 -1.03166
0.039575 -0.170395 -1.03116
0.0405377 -0.169404 -1.03175
0.0395376 -0.169399 -1.03125
0.0405003 -0.168409 -1.03183
0.040463 -0.167413 -1.03192
0.0404256 -0.166417 -1.032
0.0403883 -0.165421 -1.03209
0.040351 -0.164426 -1.03217
0.0393136 -0.163425 -1.03176
0.0403136 -0.16343 -1.03226
0.0392955 -0.162969 -1.0323
0.0397255 -0.174462 -1.03182
0.0397447 -0.175003 -1.03228
0.0407255 -0.174467 -1.03232
0.0406881 -0.173472 -1.03241
0.0396881 -0.173467 -1.03191
0.0406508 -0.172476 -1.03249
0.0406135 -0.17148 -1.03258
0.0405761 -0.170485 -1.03266
0.0405388 -0.169489 -1.03275
0.0405014 -0.168493 -1.03283
0.0404641 -0.167497 -1.03291
0.0404268 -0.166502 -1.033
0.0403894 -0.165506 -1.03308
0.0403521 -0.16451 -1.03317
0.0403147 -0.163514 -1.03325
0.0392774 -0.162514 -1.03284
0.0402774 -0.162519 -1.03334
0.04024 -0.161523 -1.03342
0.03924 -0.161518 -1.03292
0.0392219 -0.161062 -1.03346
0.0398013 -0.176538 -1.03265
0.0398205 -0.177079 -1.03311
0.0408013 -0.176543 -1.03315
0.0407639 -0.175548 -1.03324
0.0397639 -0.175543 -1.03273
0.0407266 -0.174552 -1.03332
0.0406892 -0.173556 -1.0334
0.0406519 -0.17256 -1.03349
0.0406146 -0.171565 -1.03357
0.0405772 -0.170569 -1.03366
0.0405399 -0.169573 -1.03374
0.0405025 -0.168578 -1.03383
0.0404652 -0.167582 -1.03391
0.0404279 -0.166586 -1.034
0.0403905 -0.16559 -1.03408
0.0403532 -0.164595 -1.03416
0.0403158 -0.163599 -1.03425
0.0402785 -0.162603 -1.03433
0.0402412 -0.161607 -1.03442
0.039223 -0.161147 -1.03446
0.0404372 -0.19355 -1.03221
0.0404564 -0.19409 -1.03267
0.0414372 -0.193555 -1.03271
0.0413998 -0.192559 -1.0328
0.0403998 -0.192555 -1.0323
0.0413625 -0.191564 -1.03288
0.0403625 -0.191559 -1.03238
0.0403444 -0.191103 -1.03292
0.0398397 -0.177619 -1.03356
0.0398589 -0.178159 -1.03402
0.0404663 -0.167666 -1.03491
0.040429 -0.166671 -1.03499
0.0403916 -0.165675 -1.03508
0.0403543 -0.164679 -1.03516
0.040317 -0.163683 -1.03525
0.0402796 -0.162688 -1.03533
0.0402423 -0.161692 -1.03541
0.0392242 -0.161231 -1.03545
0.0406623 -0.199609 -1.0327
0.0406815 -0.200149 -1.03316
0.0416623 -0.199614 -1.0332
0.041625 -0.198618 -1.03329
0.040625 -0.198613 -1.03278
0.0415876 -0.197623 -1.03337
0.0405876 -0.197618 -1.03287
0.0415503 -0.196627 -1.03345
0.0405503 -0.196622 -1.03295
0.040513 -0.195626 -1.03304
0.0404756 -0.19463 -1.03312
0.0403263 -0.190648 -1.03346
0.0412889 -0.189657 -1.03405
0.0402889 -0.189652 -1.03355
0.0412516 -0.188661 -1.03413
0.0402516 -0.188656 -1.03363
0.0412142 -0.187665 -1.03421
0.0402142 -0.18766 -1.03371
0.0411769 -0.18667 -1.0343
0.0401769 -0.186665 -1.0338
0.0411396 -0.185674 -1.03438
0.0401396 -0.185669 -1.03388
0.0411022 -0.184678 -1.03447
0.0401022 -0.184673 -1.03397
0.0410649 -0.183682 -1.03455
0.0400649 -0.183678 -1.03405
0.0410275 -0.182687 -1.03464
0.0400275 -0.182682 -1.03414
0.0400094 -0.182226 -1.03468
0.0399155 -0.179695 -1.03439
0.0399347 -0.180235 -1.03485
0.0409155 -0.1797 -1.03489
0.0408782 -0.178704 -1.03497
0.0398782 -0.178699 -1.03447
0.0404301 -0.166755 -1.03599
0.0403928 -0.165759 -1.03607
0.0403554 -0.164764 -1.03616
0.0403181 -0.163768 -1.03624
0.0402807 -0.162772 -1.03633
0.0402434 -0.161776 -1.03641
0.0392253 -0.161316 -1.03645
0.0418501 -0.204677 -1.03377
0.0418128 -0.203681 -1.03386
0.0407947 -0.203221 -1.0339
0.0407755 -0.202681 -1.03344
0.0407381 -0.201685 -1.03353
0.0407008 -0.200689 -1.03361
0.0412154 -0.18775 -1.03521
0.041178 -0.186754 -1.0353
0.0411407 -0.185758 -1.03538
0.0411033 -0.184763 -1.03546
0.041066 -0.183767 -1.03555
0.0410287 -0.182771 -1.03563
0.0399913 -0.181771 -1.03522
0.0409913 -0.181775 -1.03572
0.040954 -0.18078 -1.0358
0.039954 -0.180775 -1.0353
0.0409166 -0.179784 -1.03589
0.0403939 -0.165844 -1.03707
0.0403565 -0.164848 -1.03715
0.0403192 -0.163852 -1.03724
0.0392818 -0.162852 -1.03682
0.0393011 -0.163392 -1.03728
0.0392445 -0.161856 -1.03691
0.0410006 -0.20874 -1.03393
0.0410198 -0.20928 -1.03439
0.0420006 -0.208745 -1.03443
0.0419633 -0.207749 -1.03452
0.0409633 -0.207744 -1.03402
0.0419259 -0.206753 -1.0346
0.0409259 -0.206748 -1.0341
0.0408886 -0.205752 -1.03419
0.0408512 -0.204757 -1.03427
0.0408139 -0.203761 -1.03436
0.0411791 -0.186839 -1.03629
0.0411418 -0.185843 -1.03638
0.0411044 -0.184847 -1.03646
0.0410671 -0.183851 -1.03654
0.0410298 -0.182856 -1.03663
0.0409924 -0.18186 -1.03671
0.0409551 -0.180864 -1.0368
0.0409177 -0.179869 -1.03688
0.040395 -0.165928 -1.03807
0.0403576 -0.164933 -1.03815
0.0393203 -0.163932 -1.03773
0.0393395 -0.164472 -1.03819
0.0410017 -0.208824 -1.03493
0.0409836 -0.208369 -1.03547
0.0419644 -0.207833 -1.03551
0.041927 -0.206838 -1.0356
0.0418897 -0.205842 -1.03568
0.0412176 -0.187919 -1.0372
0.0411802 -0.186923 -1.03729
0.0411429 -0.185927 -1.03737
0.0411056 -0.184932 -1.03746
0.0410682 -0.183936 -1.03754
0.0410309 -0.18294 -1.03763
0.0409935 -0.181944 -1.03771
0.0409562 -0.180949 -1.03779
0.0403961 -0.166013 -1.03906
0.0393588 -0.165012 -1.03865
0.039378 -0.165552 -1.0391
0.0409655 -0.207913 -1.03601
0.0409474 -0.207457 -1.03655
0.0419282 -0.206922 -1.03659
0.0408908 -0.205921 -1.03618
0.04091 -0.206462 -1.03664
0.0408727 -0.205466 -1.03672
0.0418535 -0.204931 -1.03676
0.0418161 -0.203935 -1.03685
0.0417788 -0.202939 -1.03693
0.0417415 -0.201943 -1.03702
0.0417041 -0.200948 -1.0371
0.0416668 -0.199952 -1.03719
0.0416294 -0.198956 -1.03727
0.0415921 -0.197961 -1.03736
0.0415548 -0.196965 -1.03744
0.0415174 -0.195969 -1.03752
0.0414801 -0.194973 -1.03761
0.0412934 -0.189995 -1.03803
0.041256 -0.188999 -1.03812
0.0412187 -0.188003 -1.0382
0.0411814 -0.187008 -1.03828
0.041144 -0.186012 -1.03837
0.0411067 -0.185016 -1.03845
0.0410693 -0.18402 -1.03854
0.041032 -0.183025 -1.03862
0.0409947 -0.182029 -1.03871
0.0394164 -0.166633 -1.04001
0.0393972 -0.166092 -1.03956
0.0409293 -0.207002 -1.03709
0.0408546 -0.20501 -1.03726
0.0408173 -0.204014 -1.03734
0.0407799 -0.203019 -1.03743
0.0407618 -0.202563 -1.03797
0.0417426 -0.202028 -1.03801
0.0417052 -0.201032 -1.0381
0.0416679 -0.200037 -1.03818
0.0416306 -0.199041 -1.03827
0.0415932 -0.198045 -1.03835
0.0415559 -0.197049 -1.03844
0.0415185 -0.196054 -1.03852
0.0414812 -0.195058 -1.03861
0.0414439 -0.194062 -1.03869
0.0414065 -0.193066 -1.03877
0.0413692 -0.192071 -1.03886
0.0413318 -0.191075 -1.03894
0.0412945 -0.190079 -1.03903
0.0412572 -0.189084 -1.03911
0.0412198 -0.188088 -1.0392
0.0411825 -0.187092 -1.03928
0.0411451 -0.186096 -1.03937
0.0411078 -0.185101 -1.03945
0.0410705 -0.184105 -1.03953
0.0410331 -0.183109 -1.03962
0.0409958 -0.182113 -1.0397
0.0404357 -0.167178 -1.04097
0.0394176 -0.166717 -1.04101
0.0407437 -0.202108 -1.03851
0.0407063 -0.201112 -1.03859
0.040669 -0.200116 -1.03868
0.0406317 -0.19912 -1.03876
0.0405943 -0.198125 -1.03885
0.040557 -0.197129 -1.03893
0.0405196 -0.196133 -1.03902
0.0404823 -0.195137 -1.0391
0.0404642 -0.194682 -1.03964
0.041445 -0.194147 -1.03969
0.0414076 -0.193151 -1.03977
0.0413703 -0.192155 -1.03985
0.041333 -0.191159 -1.03994
0.0412956 -0.190164 -1.04002
0.0402583 -0.189163 -1.03961
0.0402775 -0.189703 -1.04006
0.0402209 -0.188167 -1.03969
0.0402028 -0.187712 -1.04023
0.0411836 -0.187177 -1.04028
0.0411463 -0.186181 -1.04036
0.0411089 -0.185185 -1.04045
0.0410716 -0.184189 -1.04053
0.0410342 -0.183194 -1.04062
0.0394933 -0.168793 -1.04184
0.0394741 -0.168253 -1.04138
0.0394368 -0.167257 -1.04147
0.0404461 -0.194226 -1.04018
0.0404087 -0.19323 -1.04027
0.0403714 -0.192235 -1.04035
0.0403341 -0.191239 -1.04044
0.0402967 -0.190243 -1.04052
0.0411847 -0.187261 -1.04127
0.0402039 -0.187796 -1.04123
0.0411474 -0.186265 -1.04136
0.04111 -0.18527 -1.04144
0.0410727 -0.184274 -1.04153
0.0410353 -0.183278 -1.04161
0.0395318 -0.169873 -1.04275
0.0395126 -0.169333 -1.04229
0.0402232 -0.188336 -1.04169
0.0402424 -0.188876 -1.04214
0.0412232 -0.188341 -1.04219
0.0411858 -0.187346 -1.04227
0.0411485 -0.18635 -1.04235
0.0411111 -0.185354 -1.04244
0.0410738 -0.184358 -1.04252
0.0395703 -0.170953 -1.04366
0.039551 -0.170413 -1.04321
0.0412243 -0.188426 -1.04318
0.0402435 -0.188961 -1.04314
0.0411869 -0.18743 -1.04327
0.0411496 -0.186434 -1.04335