<VTKFile type="UnstructuredGrid" version="0.1" byte_order="BigEndian">
  <UnstructuredGrid>
    <Piece NumberOfPoints="12644" NumberOfCells="25288">
      <PointData>
        <DataArray type="Float64" Name="position" NumberOfComponents="3" format="ascii">
0.0322384 0.234351 -0.174541
0.0322302 0.233825 -0.175012
0.0332339 0.234313 -0.175045
0.0322412 0.234823 -0.175068
0.032222 0.233298 -0.175484
0.0322137 0.232771 -0.175956
0.0332174 0.233259 -0.175988
0.0332285 0.234257 -0.176043
0.032244 0.235295 -0.175594
0.0332395 0.235256 -0.176098
0.0322468 0.235766 -0.176121
0.033212 0.233204 -0.176986
0.0322083 0.232716 -0.176954
0.033223 0.234202 -0.177042
0.0332341 0.235201 -0.177097
0.0322414 0.235711 -0.17712
0.0332066 0.233149 -0.177985
0.0322029 0.232661 -0.177952
0.0332176 0.234147 -0.17804
0.0332287 0.235145 -0.178095
0.032236 0.235656 -0.178118
0.0332012 0.233093 -0.178983
0.0321975 0.232606 -0.178951
0.0332122 0.234092 -0.179039
0.0332233 0.23509 -0.179094
0.0322306 0.235601 -0.179117
0.0322003 0.233077 -0.179478
0.0322031 0.233549 -0.180005
0.0332068 0.234037 -0.180037
0.0332178 0.235035 -0.180092
0.0322252 0.235546 -0.180115
0.0322059 0.23402 -0.180531
0.032217 0.235019 -0.180587
0.0302364 0.233431 -0.173477
0.0302282 0.232904 -0.173949
0.0312319 0.233392 -0.173981
0.0312429 0.23439 -0.174037
0.0302475 0.234429 -0.173533
0.031254 0.235389 -0.174092
0.0302585 0.235428 -0.173588
0.0302613 0.235899 -0.174115
0.0312265 0.233337 -0.17498
0.0302228 0.232849 -0.174948
0.0312486 0.235334 -0.17509
0.0302559 0.235844 -0.175113
0.0302146 0.232322 -0.175419
0.0302063 0.231795 -0.175891
0.03121 0.232283 -0.175923
0.0302505 0.235789 -0.176112
0.0312046 0.232228 -0.176922
0.0302009 0.23174 -0.176889
0.0302451 0.235734 -0.17711
0.0311992 0.232173 -0.17792
0.0301955 0.231685 -0.177888
0.0302397 0.235679 -0.178109
0.0311938 0.232118 -0.178919
0.0301901 0.23163 -0.178886
0.0302343 0.235623 -0.179107
0.0311884 0.232062 -0.179917
0.0301847 0.231575 -0.179885
0.0311994 0.233061 -0.179972
0.0302288 0.235568 -0.180106
0.0301875 0.232046 -0.180411
0.0301903 0.232518 -0.180938
0.031194 0.233006 -0.180971
0.031205 0.234004 -0.181026
0.0302124 0.234515 -0.181049
0.0302206 0.235041 -0.180577
0.0301931 0.232989 -0.181465
0.0302042 0.233988 -0.18152
0.0282455 0.233509 -0.172469
0.0282373 0.232982 -0.172941
0.029241 0.23347 -0.172973
0.029252 0.234468 -0.173029
0.0282565 0.234507 -0.172525
0.0282593 0.234979 -0.173051
0.028229 0.232455 -0.173413
0.0282208 0.231928 -0.173884
0.0292245 0.232416 -0.173917
0.0282622 0.23545 -0.173578
0.028265 0.235922 -0.174105
0.0282126 0.231401 -0.174356
0.0282044 0.230875 -0.174827
0.0292081 0.231363 -0.17486
0.0292191 0.232361 -0.174915
0.0282596 0.235867 -0.175104
0.0292026 0.231307 -0.175858
0.0281989 0.230819 -0.175826
0.0282541 0.235812 -0.176102
0.0291972 0.231252 -0.176857
0.0281935 0.230764 -0.176824
0.0282487 0.235756 -0.177101
0.0291918 0.231197 -0.177855
0.0281881 0.230709 -0.177823
0.0282433 0.235701 -0.178099
0.0291864 0.231142 -0.178854
0.0281827 0.230654 -0.178821
0.0282379 0.235646 -0.179097
0.029181 0.231087 -0.179852
0.0281773 0.230599 -0.17982
0.0282214 0.234592 -0.180041
0.0282297 0.235119 -0.179569
0.0292251 0.23508 -0.180073
0.0281801 0.23107 -0.180347
0.0281829 0.231542 -0.180873
0.0291866 0.23203 -0.180906
0.028216 0.234537 -0.181039
0.0281857 0.232014 -0.1814
0.0281968 0.233012 -0.181456
0.0282078 0.23401 -0.181511
0.0262271 0.231534 -0.172349
0.0262188 0.231008 -0.172821
0.0272225 0.231496 -0.172853
0.0272336 0.232494 -0.172909
0.0262381 0.232533 -0.172405
0.0262491 0.233531 -0.17246
0.026252 0.234003 -0.172987
0.0272556 0.234491 -0.173019
0.0272171 0.23144 -0.173852
0.0262134 0.230952 -0.173819
0.0262548 0.234474 -0.173514
0.0262576 0.234946 -0.17404
0.0272613 0.235434 -0.174073
0.026208 0.230897 -0.174818
0.0272559 0.235379 -0.175071
0.0262522 0.234891 -0.175039
0.0262026 0.230842 -0.175816
0.0272504 0.235324 -0.17607
0.0262468 0.234836 -0.176037
0.0261972 0.230787 -0.176815
0.027245 0.235268 -0.177068
0.0262413 0.234781 -0.177036
0.0261918 0.230732 -0.177813
0.0272396 0.235213 -0.178067
0.0262359 0.234725 -0.178034
0.0261864 0.230677 -0.178812
0.0272342 0.235158 -0.179065
0.0262305 0.23467 -0.179033
0.0261809 0.230621 -0.17981
0.0262251 0.234615 -0.180031
0.0271792 0.231054 -0.180841
0.0261755 0.230566 -0.180809
0.0262086 0.233561 -0.180974
0.0262169 0.234088 -0.180503
0.0272123 0.234049 -0.181007
0.0261783 0.231038 -0.181336
0.0261894 0.232036 -0.181391
0.0262004 0.233035 -0.181446
0.0242197 0.230559 -0.172285
0.0242114 0.230032 -0.172756
0.0252151 0.23052 -0.172789
0.0242307 0.231557 -0.17234
0.0242417 0.232555 -0.172395
0.0242446 0.233027 -0.172922
0.0252483 0.233515 -0.172954
0.0242143 0.230503 -0.173283
0.0242171 0.230975 -0.17381
0.0242474 0.233499 -0.173449
0.0242502 0.23397 -0.173976
0.0252539 0.234458 -0.174008
0.0242088 0.230448 -0.174281
0.0242006 0.229921 -0.174753
0.0252043 0.230409 -0.174785
0.024253 0.234442 -0.174502
0.0242558 0.234914 -0.175029
0.0251989 0.230354 -0.175784
0.0241952 0.229866 -0.175752
0.0242504 0.234858 -0.176028
0.0251935 0.230299 -0.176782
0.0241898 0.229811 -0.17675
0.024245 0.234803 -0.177026
0.0251881 0.230244 -0.177781
0.0241844 0.229756 -0.177748
0.0242396 0.234748 -0.178025
0.0251827 0.230189 -0.178779
0.024179 0.229701 -0.178747
0.0242342 0.234693 -0.179023
0.0251772 0.230133 -0.179778
0.0241736 0.229646 -0.179745
0.0242177 0.233639 -0.179966
0.0242259 0.234166 -0.179495
0.0252214 0.234127 -0.179999
0.0241764 0.230117 -0.180272
0.0241792 0.230589 -0.180799
0.0242013 0.232586 -0.18091
0.0242095 0.233112 -0.180438
0.025205 0.233074 -0.180942
0.024182 0.23106 -0.181326
0.024193 0.232059 -0.181381
0.0222123 0.229583 -0.17222
0.0222041 0.229056 -0.172691
0.0232078 0.229544 -0.172724
0.0222233 0.230581 -0.172275
0.0222344 0.23158 -0.17233
0.0222454 0.232578 -0.172385
0.0222482 0.23305 -0.172912
0.0232023 0.229489 -0.173722
0.0221986 0.229001 -0.17369
0.0232134 0.230487 -0.173777
0.022251 0.233521 -0.173439
0.0222538 0.233993 -0.173966
0.0231969 0.229434 -0.174721
0.0221932 0.228946 -0.174688
0.0222567 0.234464 -0.174493
0.0222595 0.234936 -0.17502
0.0231915 0.229378 -0.175719
0.0221878 0.22889 -0.175687
0.0222541 0.234881 -0.176018
0.0231861 0.229323 -0.176718
0.0221824 0.228835 -0.176685
0.0222486 0.234826 -0.177017
0.0231807 0.229268 -0.177716
0.022177 0.22878 -0.177684
0.0222432 0.234771 -0.178015
0.0231753 0.229213 -0.178715
0.0221716 0.228725 -0.178682
0.0222268 0.233717 -0.178958
0.022235 0.234244 -0.178487
0.0232305 0.234205 -0.178991
0.0221744 0.229197 -0.179209
0.0221772 0.229668 -0.179736
0.0222103 0.232663 -0.179902
0.0222185 0.23319 -0.17943
0.023214 0.233151 -0.179934
0.0231755 0.230101 -0.180767
0.0221718 0.229613 -0.180734
0.0221939 0.23161 -0.180845
0.0222021 0.232137 -0.180373
0.0231976 0.232098 -0.180877
0.0221746 0.230085 -0.181261
0.0221856 0.231083 -0.181316
0.0218107 0.198913 -0.183543
0.0218025 0.198386 -0.184014
0.0228062 0.198874 -0.184047
0.0228172 0.199873 -0.184102
0.0218218 0.199912 -0.183598
0.0228283 0.200871 -0.184157
0.0218328 0.20091 -0.183653
0.0228393 0.201869 -0.184212
0.0218439 0.201908 -0.183708
0.0228504 0.202868 -0.184268
0.0218549 0.202907 -0.183764
0.0228614 0.203866 -0.184323
0.0218659 0.203905 -0.183819
0.0218687 0.204377 -0.184346
0.0217943 0.19786 -0.184486
0.0217861 0.197333 -0.184958
0.0227898 0.197821 -0.18499
0.0228008 0.198819 -0.185045
0.0228118 0.199817 -0.1851
0.0228229 0.200816 -0.185156
0.0228339 0.201814 -0.185211
0.022845 0.202813 -0.185266
0.022856 0.203811 -0.185321
0.0218716 0.204848 -0.184873
0.022867 0.20481 -0.185377
0.0228781 0.205808 -0.185432
0.0218826 0.205847 -0.184928
0.0218854 0.206318 -0.185455
0.0217778 0.196806 -0.185429
0.0217696 0.196279 -0.185901
0.0227733 0.196767 -0.185933
0.0227843 0.197765 -0.185988
0.0227954 0.198764 -0.186044
0.0228064 0.199762 -0.186099
0.0228175 0.200761 -0.186154
0.0228285 0.201759 -0.186209
0.0228395 0.202758 -0.186265
0.0228506 0.203756 -0.18632
0.0228616 0.204754 -0.186375
0.0228727 0.205753 -0.18643
0.0218882 0.20679 -0.185982
0.0228837 0.206751 -0.186486
0.021891 0.207262 -0.186508
0.0227679 0.196712 -0.186932
0.0217642 0.196224 -0.186899
0.0227789 0.19771 -0.186987
0.02279 0.198709 -0.187042
0.022801 0.199707 -0.187097
0.0228121 0.200706 -0.187153
0.0228231 0.201704 -0.187208
0.0228341 0.202702 -0.187263
0.0228452 0.203701 -0.187318
0.0228562 0.204699 -0.187374
0.0228672 0.205698 -0.187429
0.0228783 0.206696 -0.187484
0.0218856 0.207207 -0.187507
0.021767 0.196696 -0.187426
0.0217698 0.197167 -0.187953
0.0227735 0.197655 -0.187985
0.0227846 0.198654 -0.188041
0.0227956 0.199652 -0.188096
0.0228066 0.20065 -0.188151
0.0228177 0.201649 -0.188206
0.0228287 0.202647 -0.188262
0.0228398 0.203646 -0.188317
0.0228508 0.204644 -0.188372
0.0228618 0.205642 -0.188427
0.0218774 0.20668 -0.187978
0.0218692 0.206153 -0.18845
0.0217726 0.197639 -0.18848
0.0217837 0.198637 -0.188535
0.0217947 0.199636 -0.18859
0.0218058 0.200634 -0.188646
0.0218168 0.201632 -0.188701
0.0218278 0.202631 -0.188756
0.0218389 0.203629 -0.188811
0.0218499 0.204628 -0.188866
0.0218609 0.205626 -0.188922
0.0202213 0.229661 -0.171212
0.0202131 0.229134 -0.171683
0.0212168 0.229622 -0.171716
0.0212279 0.23062 -0.171771
0.0202324 0.230659 -0.171267
0.0212389 0.231618 -0.171826
0.0202434 0.231657 -0.171322
0.0202462 0.232129 -0.171849
0.0202049 0.228607 -0.172155
0.0201967 0.22808 -0.172627
0.0212004 0.228568 -0.172659
0.0202491 0.232601 -0.172376
0.0212556 0.23356 -0.172935
0.0202601 0.233599 -0.172431
0.0202629 0.234071 -0.172958
0.0211949 0.228513 -0.173657
0.0201913 0.228025 -0.173625
0.0212612 0.234503 -0.173989
0.0202657 0.234542 -0.173485
0.0202685 0.235014 -0.174012
0.0211895 0.228458 -0.174656
0.0201858 0.22797 -0.174623
0.0212668 0.235447 -0.175043
0.0202713 0.235486 -0.174538
0.0202742 0.235957 -0.175065
0.0211841 0.228403 -0.175654
0.0201804 0.227915 -0.175622
0.0212614 0.235391 -0.176041
0.0202687 0.235902 -0.176064
0.0211787 0.228347 -0.176653
0.020175 0.227859 -0.17662
0.021256 0.235336 -0.177039
0.0202633 0.235847 -0.177062
0.0201778 0.228331 -0.177147
0.0201806 0.228803 -0.177674
0.0202469 0.234793 -0.178005
0.0202551 0.23532 -0.177534
0.0201752 0.228748 -0.178673
0.0202304 0.23374 -0.178949
0.0202387 0.234266 -0.178477
0.0211735 0.22918 -0.179703
0.0201698 0.228692 -0.179671
0.020214 0.232686 -0.179892
0.0202222 0.233213 -0.17942
0.0211681 0.229125 -0.180702
0.0201644 0.228637 -0.180669
0.0201975 0.231632 -0.180835
0.0202057 0.232159 -0.180364
0.0201672 0.229109 -0.181196
0.0201783 0.230107 -0.181252
0.0201893 0.231106 -0.181307
0.0198306 0.199101 -0.180538
0.0198224 0.198574 -0.181009
0.0208261 0.199062 -0.181042
0.0208371 0.200061 -0.181097
0.0198417 0.2001 -0.180593
0.0208482 0.201059 -0.181152
0.0198527 0.201098 -0.180648
0.0208592 0.202058 -0.181208
0.0198637 0.202096 -0.180703
0.0198666 0.202568 -0.18123
0.0198031 0.197049 -0.181426
0.0197949 0.196522 -0.181897
0.0207986 0.19701 -0.18193
0.0208096 0.198009 -0.181985
0.0198142 0.198048 -0.181481
0.0208207 0.199007 -0.18204
0.0208317 0.200006 -0.182096
0.0208428 0.201004 -0.182151
0.0208538 0.202002 -0.182206
0.0198694 0.20304 -0.181757
0.0208648 0.203001 -0.182261
0.0208759 0.203999 -0.182316
0.0198804 0.204038 -0.181812
0.0208869 0.204998 -0.182372
0.0198915 0.205037 -0.181868
0.020898 0.205996 -0.182427
0.0199025 0.206035 -0.181923
0.0199053 0.206507 -0.18245
0.0197867 0.195996 -0.182369
0.0197785 0.195469 -0.182841
0.0207822 0.195957 -0.182873
0.0207932 0.196955 -0.182928
0.0208042 0.197954 -0.182984
0.0208153 0.198952 -0.183039
0.0208263 0.19995 -0.183094
0.0208374 0.200949 -0.183149
0.0208484 0.201947 -0.183204
0.0208594 0.202946 -0.18326
0.0208705 0.203944 -0.183315
0.0208815 0.204942 -0.18337
0.0208925 0.205941 -0.183425
0.0199081 0.206978 -0.182977
0.0209036 0.206939 -0.183481
0.0199109 0.20745 -0.183503
0.0197702 0.194942 -0.183312
0.019762 0.194415 -0.183784
0.0207657 0.194903 -0.183816
0.0207767 0.195902 -0.183872
0.0207878 0.1969 -0.183927
0.0207988 0.197898 -0.183982
0.0208761 0.204887 -0.184369
0.0208871 0.205886 -0.184424
0.0208982 0.206884 -0.184479
0.0199137 0.207921 -0.18403
0.0209092 0.207883 -0.184534
0.0209203 0.208881 -0.18459
0.0199248 0.20892 -0.184086
0.0199276 0.209391 -0.184612
0.0197538 0.193888 -0.184255
0.0197456 0.193362 -0.184727
0.0207493 0.19385 -0.18476
0.0207603 0.194848 -0.184815
0.0207713 0.195846 -0.18487
0.0207824 0.196845 -0.184925
0.0208928 0.206829 -0.185478
0.0209038 0.207827 -0.185533
0.0209148 0.208826 -0.185588
0.0199304 0.209863 -0.185139
0.0209259 0.209824 -0.185643
0.0199332 0.210335 -0.185666
0.0197373 0.192835 -0.185199
0.0197291 0.192308 -0.18567
0.0207328 0.192796 -0.185703
0.0207438 0.193794 -0.185758
0.0207549 0.194793 -0.185813
0.0207659 0.195791 -0.185868
0.0208984 0.207772 -0.186531
0.0209094 0.208771 -0.186586
0.0209205 0.209769 -0.186642
0.0199278 0.21028 -0.186665
0.0207274 0.192741 -0.186701
0.0197237 0.192253 -0.186669
0.0207384 0.193739 -0.186756
0.0207495 0.194738 -0.186812
0.0207605 0.195736 -0.186867
0.020893 0.207717 -0.18753
0.020904 0.208715 -0.187585
0.0209151 0.209714 -0.18764
0.0199224 0.210224 -0.187663
0.020722 0.192686 -0.1877
0.0197183 0.192198 -0.187667
0.020733 0.193684 -0.187755
0.0207441 0.194682 -0.18781
0.0207551 0.195681 -0.187865
0.0207661 0.196679 -0.187921
0.0208765 0.206663 -0.188473
0.0208876 0.207662 -0.188528
0.0208986 0.20866 -0.188583
0.0209096 0.209659 -0.188639
0.019917 0.210169 -0.188661
0.0197211 0.192669 -0.188194
0.0197321 0.193668 -0.188249
0.0197432 0.194666 -0.188305
0.0197542 0.195665 -0.18836
0.0197652 0.196663 -0.188415
0.0197763 0.197661 -0.18847
0.0197873 0.19866 -0.188525
0.0197984 0.199658 -0.188581
0.0198094 0.200657 -0.188636
0.0198204 0.201655 -0.188691
0.0198315 0.202653 -0.188746
0.0198425 0.203652 -0.188802
0.0198536 0.20465 -0.188857
0.0198646 0.205649 -0.188912
0.0198756 0.206647 -0.188967
0.0198867 0.207646 -0.189023
0.0198977 0.208644 -0.189078
0.0199088 0.209642 -0.189133
0.0179369 0.199284 -0.159505
0.0179287 0.198757 -0.159977
0.0189324 0.199245 -0.160009
0.0189434 0.200244 -0.160065
0.017948 0.200283 -0.159561
0.0179508 0.200754 -0.160087
0.0179205 0.198231 -0.160449
0.0179122 0.197704 -0.16092
0.0189159 0.198192 -0.160953
0.018927 0.19919 -0.161008
0.018938 0.200188 -0.161063
0.0179536 0.201226 -0.160614
0.018949 0.201187 -0.161118
0.0189601 0.202185 -0.161173
0.0179646 0.202224 -0.160669
0.0189711 0.203184 -0.161229
0.0179757 0.203223 -0.160725
0.0189822 0.204182 -0.161284
0.0179867 0.204221 -0.16078
0.0189932 0.205181 -0.161339
0.0179977 0.205219 -0.160835
0.0190042 0.206179 -0.161394
0.0180088 0.206218 -0.16089
0.0190153 0.207177 -0.16145
0.0180198 0.207216 -0.160946
0.0190263 0.208176 -0.161505
0.0180309 0.208215 -0.161001
0.0190374 0.209174 -0.16156
0.0180419 0.209213 -0.161056
0.0190484 0.210173 -0.161615
0.0180529 0.210211 -0.161111
0.0180557 0.210683 -0.161638
0.017904 0.197177 -0.161392
0.0178958 0.19665 -0.161863
0.0188995 0.197138 -0.161896
0.0189105 0.198136 -0.161951
0.0189216 0.199135 -0.162006
0.0189326 0.200133 -0.162061
0.0189436 0.201132 -0.162117
0.0189547 0.20213 -0.162172
0.0189657 0.203129 -0.162227
0.0189767 0.204127 -0.162282
0.0189878 0.205125 -0.162338
0.0189988 0.206124 -0.162393
0.0190099 0.207122 -0.162448
0.0190209 0.208121 -0.162503
0.0190319 0.209119 -0.162559
0.019043 0.210117 -0.162614
0.0180586 0.211155 -0.162165
0.019054 0.211116 -0.162669
0.0190651 0.212114 -0.162724
0.0180696 0.212153 -0.16222
0.0190761 0.213113 -0.162779
0.0180806 0.213152 -0.162275
0.0190871 0.214111 -0.162835
0.0180917 0.21415 -0.162331
0.0190982 0.215109 -0.16289
0.0181027 0.215148 -0.162386
0.0181055 0.21562 -0.162913
0.0178986 0.197122 -0.16239
0.0179014 0.197593 -0.162917
0.0189051 0.198081 -0.162949
0.0189161 0.19908 -0.163005
0.0189272 0.200078 -0.16306
0.0189382 0.201077 -0.163115
0.0189493 0.202075 -0.16317
0.0189603 0.203073 -0.163226
0.0189713 0.204072 -0.163281
0.0189824 0.20507 -0.163336
0.0189934 0.206069 -0.163391
0.0190045 0.207067 -0.163447
0.0190155 0.208065 -0.163502
0.0190265 0.209064 -0.163557
0.0190376 0.210062 -0.163612
0.0190486 0.211061 -0.163667
0.0190596 0.212059 -0.163723
0.0190707 0.213057 -0.163778
0.0190817 0.214056 -0.163833
0.0190928 0.215054 -0.163888
0.0181001 0.215565 -0.163911
0.0188997 0.198026 -0.163948
0.017896 0.197538 -0.163916
0.0189107 0.199025 -0.164003
0.0189218 0.200023 -0.164058
0.0189328 0.201021 -0.164114
0.0189438 0.20202 -0.164169
0.0189549 0.203018 -0.164224
0.0189659 0.204017 -0.164279
0.018977 0.205015 -0.164335
0.018988 0.206013 -0.16439
0.018999 0.207012 -0.164445
0.0190101 0.20801 -0.1645
0.0190211 0.209009 -0.164555
0.0190322 0.210007 -0.164611
0.0190432 0.211005 -0.164666
0.0190542 0.212004 -0.164721
0.0190653 0.213002 -0.164776
0.0190763 0.214001 -0.164832
0.0190874 0.214999 -0.164887
0.0180947 0.21551 -0.16491
0.0188943 0.197971 -0.164946
0.0178906 0.197483 -0.164914
0.0189053 0.198969 -0.165002
0.0189164 0.199968 -0.165057
0.0189274 0.200966 -0.165112
0.0189384 0.201965 -0.165167
0.0189495 0.202963 -0.165223
0.0189605 0.203961 -0.165278
0.0189715 0.20496 -0.165333
0.0189826 0.205958 -0.165388
0.0189936 0.206957 -0.165443
0.0190047 0.207955 -0.165499
0.0190157 0.208953 -0.165554
0.0190267 0.209952 -0.165609
0.0190378 0.21095 -0.165664
0.0190488 0.211949 -0.16572
0.0190599 0.212947 -0.165775
0.0190709 0.213946 -0.16583
0.0180865 0.214983 -0.165381
0.0180782 0.214456 -0.165853
0.0178934 0.197955 -0.165441
0.0178962 0.198426 -0.165968
0.0188999 0.198914 -0.166
0.0189109 0.199913 -0.166055
0.018922 0.200911 -0.166111
0.018933 0.201909 -0.166166
0.0189441 0.202908 -0.166221
0.0189551 0.203906 -0.166276
0.0189661 0.204905 -0.166331
0.0189772 0.205903 -0.166387
0.0189882 0.206901 -0.166442
0.0189993 0.2079 -0.166497
0.0190103 0.208898 -0.166552
0.0190213 0.209897 -0.166608
0.0190324 0.210895 -0.166663
0.0190434 0.211894 -0.166718
0.0190544 0.212892 -0.166773
0.01807 0.213929 -0.166325
0.0180618 0.213402 -0.166796
0.017899 0.198898 -0.166495
0.0179101 0.199896 -0.16655
0.0179129 0.200368 -0.167077
0.0189166 0.200856 -0.167109
0.0189276 0.201854 -0.167164
0.0189386 0.202853 -0.167219
0.0189497 0.203851 -0.167275
0.0189607 0.204849 -0.16733
0.0189718 0.205848 -0.167385
0.0189828 0.206846 -0.16744
0.0189938 0.207845 -0.167496
0.0190049 0.208843 -0.167551
0.0190159 0.209842 -0.167606
0.019027 0.21084 -0.167661
0.019038 0.211838 -0.167717
0.0180536 0.212876 -0.167268
0.0180453 0.212349 -0.167739
0.0179157 0.20084 -0.167603
0.0179267 0.201838 -0.167659
0.0179295 0.20231 -0.168186
0.0189332 0.202797 -0.168218
0.0189443 0.203796 -0.168273
0.0189553 0.204794 -0.168328
0.0189663 0.205793 -0.168384
0.0189774 0.206791 -0.168439
0.0189884 0.20779 -0.168494
0.0189995 0.208788 -0.168549
0.018015 0.209825 -0.168101
0.0180068 0.209298 -0.168572
0.0180261 0.210824 -0.168156
0.0180371 0.211822 -0.168211
0.0179324 0.202781 -0.168712
0.0179434 0.20378 -0.168768
0.0179544 0.204778 -0.168823
0.0179655 0.205776 -0.168878
0.0179765 0.206775 -0.168933
0.0179875 0.207773 -0.168989
0.0179986 0.208772 -0.169044
0.0182029 0.227686 -0.171092
0.0181947 0.22716 -0.171563
0.0191984 0.227647 -0.171596
0.0192094 0.228646 -0.171651
0.018214 0.228685 -0.171147
0.018225 0.229683 -0.171202
0.018236 0.230682 -0.171257
0.0182471 0.23168 -0.171313
0.0192536 0.23264 -0.171872
0.0182581 0.232678 -0.171368
0.0192646 0.233638 -0.171927
0.0182692 0.233677 -0.171423
0.0192757 0.234636 -0.171982
0.0182802 0.234675 -0.171478
0.018283 0.235147 -0.172005
0.019193 0.227592 -0.172594
0.0181893 0.227104 -0.172562
0.0192702 0.234581 -0.172981
0.0182858 0.235618 -0.172532
0.0192813 0.23558 -0.173036
0.0182886 0.23609 -0.173059
0.0191876 0.227537 -0.173593
0.0181839 0.227049 -0.17356
0.0192759 0.235524 -0.174034
0.0182914 0.236562 -0.173586
0.0192869 0.236523 -0.17409
0.0182943 0.237033 -0.174113
0.0191821 0.227482 -0.174591
0.0181785 0.226994 -0.174559
0.0192815 0.236468 -0.175088
0.0182888 0.236978 -0.175111
0.0191767 0.227427 -0.17559
0.018173 0.226939 -0.175557
0.0192761 0.236412 -0.176087
0.0182834 0.236923 -0.176109
0.0191713 0.227372 -0.176588
0.0181676 0.226884 -0.176556
0.0192707 0.236357 -0.177085
0.018278 0.236868 -0.177108
0.0181704 0.227355 -0.177082
0.0181733 0.227827 -0.177609
0.0191769 0.228315 -0.177642
0.0192542 0.235304 -0.178028
0.0182616 0.235814 -0.178051
0.0182698 0.236341 -0.17758
0.0191715 0.22826 -0.17864
0.0181678 0.227772 -0.178608
0.0192378 0.23425 -0.178972
0.0182451 0.234761 -0.178994
0.0182533 0.235287 -0.178523
0.0178505 0.199289 -0.177533
0.0178423 0.198763 -0.178004
0.018846 0.19925 -0.178037
0.018857 0.200249 -0.178092
0.0178616 0.200288 -0.177588
0.0188681 0.201247 -0.178147
0.0178726 0.201286 -0.177643
0.0188791 0.202246 -0.178203
0.0178836 0.202285 -0.177699
0.0188901 0.203244 -0.178258
0.0178947 0.203283 -0.177754
0.0178975 0.203755 -0.178281
0.0191661 0.228204 -0.179639
0.0181624 0.227717 -0.179606
0.0182176 0.232709 -0.179882
0.0182258 0.233235 -0.179411
0.0182369 0.234234 -0.179466
0.017823 0.197237 -0.178421
0.0178148 0.196711 -0.178892
0.0188185 0.197198 -0.178925
0.0188295 0.198197 -0.17898
0.0178341 0.198236 -0.178476
0.0188406 0.199195 -0.179035
0.0188516 0.200194 -0.179091
0.0188627 0.201192 -0.179146
0.0188737 0.202191 -0.179201
0.0188847 0.203189 -0.179256
0.0179003 0.204226 -0.178807
0.0188958 0.204187 -0.179311
0.0189068 0.205186 -0.179367
0.0179113 0.205225 -0.178863
0.0179142 0.205696 -0.17939
0.0191607 0.228149 -0.180637
0.018157 0.227661 -0.180605
0.0182012 0.231655 -0.180826
0.0182094 0.232182 -0.180354
0.0177955 0.195185 -0.179309
0.0177873 0.194659 -0.17978
0.018791 0.195146 -0.179813
0.018802 0.196145 -0.179868
0.0178066 0.196184 -0.179364
0.0188131 0.197143 -0.179923
0.0188241 0.198142 -0.179979
0.0188352 0.19914 -0.180034
0.0188462 0.200139 -0.180089
0.0188572 0.201137 -0.180144
0.0188683 0.202135 -0.180199
0.0188793 0.203134 -0.180255
0.0188904 0.204132 -0.18031
0.0189014 0.205131 -0.180365
0.017917 0.206168 -0.179916
0.0189124 0.206129 -0.18042
0.0189235 0.207127 -0.180476
0.017928 0.207166 -0.179972
0.0179308 0.207638 -0.180498
0.0181598 0.228133 -0.181132
0.0181709 0.229131 -0.181187
0.0181819 0.23013 -0.181242
0.0181929 0.231128 -0.181297
0.0177791 0.194132 -0.180252
0.0177709 0.193605 -0.180724
0.0187746 0.194093 -0.180756
0.0187856 0.195091 -0.180811
0.0187966 0.19609 -0.180867
0.0188077 0.197088 -0.180922
0.0188187 0.198087 -0.180977
0.0188739 0.203079 -0.181253
0.0188849 0.204077 -0.181308
0.018896 0.205075 -0.181364
0.018907 0.206074 -0.181419
0.0189181 0.207072 -0.181474
0.0179336 0.20811 -0.181025
0.0189291 0.208071 -0.181529
0.0189401 0.209069 -0.181585
0.0179447 0.209108 -0.181081
0.0179475 0.20958 -0.181607
0.0177626 0.193078 -0.181195
0.0177544 0.192551 -0.181667
0.0187581 0.193039 -0.181699
0.0187691 0.194038 -0.181755
0.0187802 0.195036 -0.18181
0.0187912 0.196035 -0.181865
0.0189126 0.207017 -0.182473
0.0189237 0.208015 -0.182528
0.0189347 0.209014 -0.182583
0.0179503 0.210051 -0.182134
0.0189458 0.210012 -0.182638
0.0179531 0.210523 -0.182661
0.0187527 0.192984 -0.182698
0.017749 0.192496 -0.182665
0.0187637 0.193983 -0.182753
0.0187748 0.194981 -0.182808
0.0189183 0.20796 -0.183526
0.0189293 0.208959 -0.183581
0.0189404 0.209957 -0.183637
0.0179477 0.210468 -0.18366
0.0177408 0.191969 -0.183137
0.0177325 0.191443 -0.183609
0.0187362 0.191931 -0.183641
0.0187473 0.192929 -0.183696
0.0187583 0.193927 -0.183751
0.0189349 0.209902 -0.184635
0.0179505 0.210939 -0.184186
0.018946 0.2109 -0.18469
0.0179533 0.211411 -0.184713
0.0177243 0.190916 -0.18408
0.0177161 0.190389 -0.184552
0.0187198 0.190877 -0.184584
0.0187308 0.191875 -0.184639
0.0187419 0.192874 -0.184695
0.0189406 0.210845 -0.185689
0.0179561 0.211883 -0.18524
0.0189516 0.211844 -0.185744
0.017959 0.212354 -0.185767
0.0177079 0.189862 -0.185023
0.0176996 0.189335 -0.185495
0.0187033 0.189823 -0.185527
0.0187144 0.190822 -0.185583
0.0187254 0.19182 -0.185638
0.0189352 0.21079 -0.186687
0.0189462 0.211788 -0.186743
0.0179535 0.212299 -0.186765
0.0186979 0.189768 -0.186526
0.0176942 0.18928 -0.186494
0.018709 0.190767 -0.186581
0.01872 0.191765 -0.186636
0.0189297 0.210735 -0.187686
0.0189408 0.211733 -0.187741
0.0179481 0.212244 -0.187764
0.017697 0.189752 -0.18702
0.0176999 0.190224 -0.187547
0.0187035 0.190711 -0.18758
0.0187146 0.19171 -0.187635
0.0189243 0.21068 -0.188684
0.0189354 0.211678 -0.18874
0.0179427 0.212189 -0.188762
0.0177027 0.190695 -0.188074
0.0177137 0.191694 -0.188129
0.0177247 0.192692 -0.188185
0.0177358 0.19369 -0.18824
0.0177468 0.194689 -0.188295
0.0177579 0.195687 -0.18835
0.0177689 0.196686 -0.188405
0.0177799 0.197684 -0.188461
0.017791 0.198682 -0.188516
0.017802 0.199681 -0.188571
0.0178131 0.200679 -0.188626
0.0178241 0.201678 -0.188682
0.0178351 0.202676 -0.188737
0.0178462 0.203675 -0.188792
0.0178572 0.204673 -0.188847
0.0178683 0.205671 -0.188903
0.0178711 0.206143 -0.189429
0.0188748 0.206631 -0.189462
0.0188858 0.207629 -0.189517
0.0188968 0.208628 -0.189572
0.0189079 0.209626 -0.189628
0.0189189 0.210625 -0.189683
0.01893 0.211623 -0.189738
0.0179373 0.212133 -0.189761
0.0178739 0.206615 -0.189956
0.0178849 0.207613 -0.190011
0.017896 0.208611 -0.190067
0.017907 0.20961 -0.190122
0.017918 0.210608 -0.190177
0.0179291 0.211607 -0.190232
0.0158964 0.195313 -0.159275
0.0158882 0.194786 -0.159746
0.0168919 0.195274 -0.159779
0.0169029 0.196273 -0.159834
0.0159074 0.196311 -0.15933
0.0169139 0.197271 -0.159889
0.0159185 0.19731 -0.159385
0.016925 0.198269 -0.159945
0.0159295 0.198308 -0.15944
0.0159406 0.199307 -0.159496
0.0159516 0.200305 -0.159551
0.0169581 0.201265 -0.16011
0.0159626 0.201304 -0.159606
0.0159655 0.201775 -0.160133
0.01588 0.194259 -0.160218
0.0158717 0.193733 -0.16069
0.0168754 0.194221 -0.160722
0.0168865 0.195219 -0.160777
0.0168975 0.196217 -0.160832
0.0169085 0.197216 -0.160888
0.0159683 0.202247 -0.16066
0.0159793 0.203245 -0.160715
0.0159903 0.204244 -0.16077
0.0160014 0.205242 -0.160826
0.0160124 0.20624 -0.160881
0.0160235 0.207239 -0.160936
0.0160345 0.208237 -0.160991
0.0160455 0.209236 -0.161047
0.0160566 0.210234 -0.161102
0.0170631 0.211194 -0.161661
0.0160676 0.211233 -0.161157
0.0170741 0.212192 -0.161716
0.0160787 0.212231 -0.161212
0.0170852 0.21319 -0.161771
0.0160897 0.213229 -0.161267
0.0170962 0.214189 -0.161827
0.0161007 0.214228 -0.161323
0.0171072 0.215187 -0.161882
0.0161118 0.215226 -0.161378
0.0161146 0.215698 -0.161905
0.01687 0.194165 -0.16172
0.0158663 0.193678 -0.161688
0.016881 0.195164 -0.161776
0.0168921 0.196162 -0.161831
0.0171129 0.216131 -0.162936
0.0161174 0.216169 -0.162432
0.0171239 0.217129 -0.162991
0.0161284 0.217168 -0.162487
0.0161313 0.217639 -0.163014
0.0168646 0.19411 -0.162719
0.0158609 0.193622 -0.162687
0.0168756 0.195109 -0.162774
0.0168867 0.196107 -0.162829
0.0168977 0.197105 -0.162885
0.0171075 0.216075 -0.163934
0.0171185 0.217074 -0.163989
0.0161258 0.217584 -0.164012
0.0158637 0.194094 -0.163213
0.0158665 0.194566 -0.16374
0.0168702 0.195053 -0.163773
0.0168813 0.196052 -0.163828
0.0168923 0.19705 -0.163883
0.017102 0.21602 -0.164933
0.0171131 0.217019 -0.164988
0.0161287 0.218056 -0.164539
0.0171241 0.218017 -0.165043
0.0161315 0.218527 -0.165066
0.0168648 0.194998 -0.164771
0.0158611 0.19451 -0.164739
0.0168758 0.195997 -0.164826
0.0168869 0.196995 -0.164882
0.0170856 0.214967 -0.165876
0.0170966 0.215965 -0.165931
0.0171077 0.216963 -0.165986
0.0161232 0.218001 -0.165537
0.016115 0.217474 -0.166009
0.0158639 0.194982 -0.165266
0.0158667 0.195454 -0.165792
0.0168704 0.195942 -0.165825
0.0168815 0.19694 -0.16588
0.0168925 0.197938 -0.165935
0.0170691 0.213913 -0.166819
0.0170802 0.214911 -0.166874
0.0170912 0.21591 -0.166929
0.0171023 0.216908 -0.166985
0.0161096 0.217419 -0.167008
0.016865 0.195886 -0.166823
0.0158613 0.195398 -0.166791
0.0168761 0.196885 -0.166879
0.0168871 0.197883 -0.166934
0.0168981 0.198882 -0.166989
0.0169092 0.19988 -0.167044
0.0170527 0.212859 -0.167762
0.0170637 0.213858 -0.167817
0.0170748 0.214856 -0.167873
0.0170858 0.215855 -0.167928
0.0161014 0.216892 -0.167479
0.0160931 0.216365 -0.167951
0.0158641 0.19587 -0.167318
0.015867 0.196342 -0.167845
0.0168706 0.19683 -0.167877
0.0168817 0.197828 -0.167932
0.0168927 0.198826 -0.167987
0.0169038 0.199825 -0.168043
0.0169148 0.200823 -0.168098
0.0169258 0.201822 -0.168153
0.0170142 0.209809 -0.168595
0.0170252 0.210807 -0.16865
0.0170362 0.211806 -0.168705
0.0170473 0.212804 -0.168761
0.0170583 0.213803 -0.168816
0.0170694 0.214801 -0.168871
0.0160849 0.215838 -0.168422
0.0160767 0.215312 -0.168894
0.0162064 0.226821 -0.16903
0.0161981 0.226294 -0.169502
0.0172018 0.226782 -0.169534
0.0172129 0.22778 -0.169589
0.0162174 0.227819 -0.169085
0.0162202 0.228291 -0.169612
0.0162395 0.229816 -0.169196
0.0162312 0.229289 -0.169667
0.0172349 0.229777 -0.1697
0.017246 0.230776 -0.169755
0.0162505 0.230815 -0.169251
0.017257 0.231774 -0.16981
0.0162615 0.231813 -0.169306
0.0172681 0.232772 -0.169865
0.0162726 0.232811 -0.169361
0.0172791 0.233771 -0.169921
0.0162836 0.23381 -0.169417
0.0172901 0.234769 -0.169976
0.0162947 0.234808 -0.169472
0.0162975 0.23528 -0.169999
0.0158698 0.196813 -0.168371
0.0158726 0.197285 -0.168898
0.0168763 0.197773 -0.168931
0.0168873 0.198771 -0.168986
0.0168984 0.19977 -0.169041
0.0169094 0.200768 -0.169096
0.0169204 0.201766 -0.169152
0.0169315 0.202765 -0.169207
0.0169425 0.203763 -0.169262
0.0169535 0.204762 -0.169317
0.0169646 0.20576 -0.169373
0.0169756 0.206759 -0.169428
0.0169867 0.207757 -0.169483
0.0169977 0.208755 -0.169538
0.0170087 0.209754 -0.169593
0.0170198 0.210752 -0.169649
0.0170308 0.211751 -0.169704
0.0170419 0.212749 -0.169759
0.0170529 0.213747 -0.169814
0.0160685 0.214785 -0.169366
0.0160602 0.214258 -0.169837
0.0161899 0.225767 -0.169973
0.0161817 0.22524 -0.170445
0.0171854 0.225728 -0.170477
0.0171964 0.226727 -0.170532
0.0172074 0.227725 -0.170588
0.016223 0.228763 -0.170139
0.0172185 0.228724 -0.170643
0.0172295 0.229722 -0.170698
0.0172406 0.23072 -0.170753
0.0172516 0.231719 -0.170809
0.0172626 0.232717 -0.170864