<VTKFile type="UnstructuredGrid" version="0.1" byte_order="BigEndian">
  <UnstructuredGrid>
    <Piece NumberOfPoints="12644" NumberOfCells="25288">
      <PointData>
        <DataArray type="Float64" Name="position" NumberOfComponents="3" format="ascii">
0.0314828 0.242583 -0.170154
0.0314849 0.242112 -0.170681
0.0324806 0.242616 -0.170654
0.0314798 0.243111 -0.170625
0.031487 0.241641 -0.171208
0.031489 0.24117 -0.171735
0.0324848 0.241674 -0.171708
0.0324797 0.242672 -0.171652
0.0314769 0.243638 -0.171097
0.0324747 0.243671 -0.171596
0.031474 0.244165 -0.171568
0.0324839 0.24173 -0.172707
0.0314882 0.241225 -0.172734
0.0324789 0.242728 -0.172651
0.0324739 0.243726 -0.172595
0.0314731 0.244221 -0.172566
0.0324831 0.241785 -0.173705
0.0314873 0.241281 -0.173732
0.032478 0.242784 -0.173649
0.032473 0.243782 -0.173593
0.0314723 0.244276 -0.173565
0.0324822 0.241841 -0.174703
0.0314865 0.241337 -0.174731
0.0324772 0.24284 -0.174648
0.0324722 0.243838 -0.174592
0.0314714 0.244332 -0.174563
0.0314835 0.241864 -0.175202
0.0314806 0.242391 -0.175673
0.0324763 0.242895 -0.175646
0.0324713 0.243894 -0.17559
0.0314706 0.244388 -0.175562
0.0314777 0.242918 -0.176145
0.0314727 0.243917 -0.176089
0.0294922 0.241519 -0.16921
0.0294943 0.241048 -0.169737
0.03049 0.241552 -0.16971
0.030485 0.242551 -0.169654
0.0294872 0.242518 -0.169154
0.0304799 0.243549 -0.169598
0.0294821 0.243516 -0.169099
0.0294792 0.244043 -0.16957
0.0304891 0.241608 -0.170709
0.0294934 0.241104 -0.170736
0.0304791 0.243605 -0.170597
0.0294783 0.244099 -0.170568
0.0294955 0.240632 -0.171263
0.0294976 0.240161 -0.17179
0.0304933 0.240665 -0.171763
0.0294775 0.244155 -0.171567
0.0304925 0.240721 -0.172761
0.0294967 0.240217 -0.172789
0.0294766 0.244211 -0.172565
0.0304916 0.240777 -0.17376
0.0294959 0.240273 -0.173787
0.0294758 0.244266 -0.173564
0.0304908 0.240833 -0.174758
0.029495 0.240328 -0.174785
0.0294749 0.244322 -0.174562
0.0304899 0.240888 -0.175757
0.0294942 0.240384 -0.175784
0.0304849 0.241887 -0.175701
0.0294741 0.244378 -0.175561
0.0294912 0.240911 -0.176255
0.0294883 0.241438 -0.176726
0.030484 0.241943 -0.176699
0.030479 0.242941 -0.176643
0.0294783 0.243435 -0.176615
0.0294762 0.243907 -0.176088
0.0294854 0.241966 -0.177198
0.0294803 0.242964 -0.177142
0.0274966 0.241453 -0.168211
0.0274986 0.240982 -0.168738
0.0284944 0.241486 -0.16871
0.0284893 0.242485 -0.168655
0.0274915 0.242452 -0.168155
0.0274886 0.242979 -0.168626
0.0275007 0.240511 -0.169265
0.0275028 0.240039 -0.169792
0.0284985 0.240544 -0.169765
0.0274857 0.243506 -0.169098
0.0274827 0.244033 -0.169569
0.0275049 0.239568 -0.170319
0.027507 0.239097 -0.170846
0.0285027 0.239601 -0.170819
0.0284977 0.240599 -0.170763
0.0274819 0.244089 -0.170567
0.0285019 0.239657 -0.171817
0.0275061 0.239152 -0.171845
0.027481 0.244145 -0.171566
0.028501 0.239713 -0.172816
0.0275053 0.239208 -0.172843
0.0274802 0.2442 -0.172564
0.0285002 0.239768 -0.173814
0.0275044 0.239264 -0.173842
0.0274793 0.244256 -0.173563
0.0284993 0.239824 -0.174813
0.0275036 0.23932 -0.17484
0.0274785 0.244312 -0.174561
0.0284985 0.23988 -0.175811
0.0275027 0.239376 -0.175839
0.0274826 0.243369 -0.175615
0.0274805 0.243841 -0.175088
0.0284784 0.243874 -0.175588
0.0274998 0.239903 -0.17631
0.0274969 0.24043 -0.176781
0.0284926 0.240934 -0.176754
0.0274818 0.243425 -0.176614
0.0274939 0.240957 -0.177252
0.0274889 0.241955 -0.177197
0.0274839 0.242954 -0.177141
0.0255101 0.239446 -0.168321
0.0255122 0.238975 -0.168848
0.0265079 0.239479 -0.168821
0.0265029 0.240478 -0.168765
0.0255051 0.240445 -0.168265
0.0255001 0.241443 -0.16821
0.0254971 0.24197 -0.168681
0.0264929 0.242475 -0.168654
0.0265071 0.239535 -0.169819
0.0255114 0.239031 -0.169847
0.0254942 0.242497 -0.169152
0.0254913 0.243024 -0.169624
0.026487 0.243529 -0.169596
0.0255105 0.239087 -0.170845
0.0264861 0.243585 -0.170595
0.0254904 0.24308 -0.170622
0.0255097 0.239142 -0.171844
0.0264853 0.24364 -0.171593
0.0254896 0.243136 -0.17162
0.0255088 0.239198 -0.172842
0.0264844 0.243696 -0.172592
0.0254887 0.243192 -0.172619
0.025508 0.239254 -0.17384
0.0264836 0.243752 -0.17359
0.0254879 0.243248 -0.173617
0.0255071 0.23931 -0.174839
0.0264827 0.243808 -0.174588
0.025487 0.243303 -0.174616
0.0255063 0.239366 -0.175837
0.0254862 0.243359 -0.175614
0.0265011 0.239926 -0.176808
0.0255054 0.239421 -0.176836
0.0254903 0.242417 -0.176668
0.0254882 0.242888 -0.176141
0.0264861 0.242921 -0.176641
0.0255025 0.239948 -0.177307
0.0254974 0.240947 -0.177251
0.0254924 0.241945 -0.177196
0.0235187 0.238438 -0.168376
0.0235208 0.237966 -0.168903
0.0245165 0.238471 -0.168876
0.0235136 0.239436 -0.16832
0.0235086 0.240435 -0.168264
0.0235057 0.240962 -0.168736
0.0245014 0.241466 -0.168708
0.0235178 0.238494 -0.169374
0.0235149 0.239021 -0.169846
0.0235028 0.241489 -0.169207
0.0234998 0.242016 -0.169678
0.0244955 0.24252 -0.169651
0.023517 0.238549 -0.170373
0.0235191 0.238078 -0.1709
0.0245148 0.238582 -0.170872
0.0234969 0.242543 -0.17015
0.0234939 0.24307 -0.170621
0.0245139 0.238638 -0.171871
0.0235182 0.238134 -0.171898
0.0234931 0.243126 -0.171619
0.0245131 0.238694 -0.172869
0.0235174 0.23819 -0.172897
0.0234922 0.243182 -0.172618
0.0245122 0.23875 -0.173868
0.0235165 0.238245 -0.173895
0.0234914 0.243238 -0.173616
0.0245114 0.238805 -0.174866
0.0235156 0.238301 -0.174894
0.0234905 0.243293 -0.174615
0.0245105 0.238861 -0.175865
0.0235148 0.238357 -0.175892
0.0234947 0.242351 -0.175669
0.0234926 0.242822 -0.175142
0.0244904 0.242855 -0.175642
0.0235119 0.238884 -0.176363
0.0235089 0.239411 -0.176835
0.0234989 0.241408 -0.176723
0.0234968 0.241879 -0.176196
0.0244946 0.241912 -0.176696
0.023506 0.239938 -0.177306
0.023501 0.240937 -0.17725
0.0215272 0.237429 -0.16843
0.0215293 0.236958 -0.168958
0.022525 0.237462 -0.16893
0.0215222 0.238428 -0.168375
0.0215172 0.239426 -0.168319
0.0215121 0.240425 -0.168263
0.0215092 0.240952 -0.168734
0.0225242 0.237518 -0.169929
0.0215285 0.237014 -0.169956
0.0225192 0.238516 -0.169873
0.0215063 0.241479 -0.169206
0.0215033 0.242006 -0.169677
0.0225233 0.237574 -0.170927
0.0215276 0.237069 -0.170954
0.0215004 0.242533 -0.170148
0.0214975 0.24306 -0.17062
0.0225225 0.23763 -0.171926
0.0215267 0.237125 -0.171953
0.0214966 0.243116 -0.171618
0.0225216 0.237685 -0.172924
0.0215259 0.237181 -0.172951
0.0214958 0.243172 -0.172617
0.0225208 0.237741 -0.173922
0.021525 0.237237 -0.17395
0.0214949 0.243227 -0.173615
0.0225199 0.237797 -0.174921
0.0215242 0.237293 -0.174948
0.0214991 0.242285 -0.174669
0.021497 0.242756 -0.174142
0.0224948 0.242789 -0.174642
0.0215213 0.23782 -0.17542
0.0215183 0.238347 -0.175891
0.0215033 0.241342 -0.175724
0.0215012 0.241814 -0.175196
0.022499 0.241846 -0.175696
0.0225132 0.238907 -0.176862
0.0215175 0.238403 -0.176889
0.0215074 0.2404 -0.176778
0.0215053 0.240871 -0.176251
0.0225032 0.240904 -0.17675
0.0215145 0.23893 -0.177361
0.0215095 0.239928 -0.177305
0.0216668 0.208202 -0.183084
0.0216689 0.20773 -0.183611
0.0226646 0.208235 -0.183584
0.0226596 0.209233 -0.183528
0.0216618 0.2092 -0.183028
0.0226546 0.210231 -0.183472
0.0216568 0.210199 -0.182973
0.0226496 0.21123 -0.183417
0.0216518 0.211197 -0.182917
0.0226445 0.212228 -0.183361
0.0216467 0.212195 -0.182861
0.0226395 0.213227 -0.183305
0.0216417 0.213194 -0.182805
0.0216388 0.213721 -0.183277
0.021671 0.207259 -0.184138
0.0216731 0.206788 -0.184666
0.0226688 0.207292 -0.184638
0.0226638 0.20829 -0.184582
0.0226588 0.209289 -0.184527
0.0226537 0.210287 -0.184471
0.0226487 0.211286 -0.184415
0.0226437 0.212284 -0.184359
0.0226387 0.213283 -0.184303
0.0216358 0.214248 -0.183748
0.0226337 0.214281 -0.184248
0.0226286 0.215279 -0.184192
0.0216308 0.215246 -0.183692
0.0216279 0.215774 -0.184163
0.0216752 0.206316 -0.185193
0.0216772 0.205845 -0.18572
0.022673 0.206349 -0.185692
0.022668 0.207348 -0.185637
0.0226629 0.208346 -0.185581
0.0226579 0.209345 -0.185525
0.0226529 0.210343 -0.185469
0.0226479 0.211342 -0.185413
0.0226428 0.21234 -0.185358
0.0226378 0.213338 -0.185302
0.0226328 0.214337 -0.185246
0.0226278 0.215335 -0.18519
0.0216249 0.216301 -0.184635
0.0226228 0.216334 -0.185134
0.021622 0.216828 -0.185106
0.0226721 0.206405 -0.186691
0.0216764 0.205901 -0.186718
0.0226671 0.207404 -0.186635
0.0226621 0.208402 -0.186579
0.0226571 0.2094 -0.186524
0.022652 0.210399 -0.186468
0.022647 0.211397 -0.186412
0.022642 0.212396 -0.186356
0.022637 0.213394 -0.1863
0.0226319 0.214393 -0.186245
0.0226269 0.215391 -0.186189
0.0226219 0.216389 -0.186133
0.0216212 0.216884 -0.186104
0.0216735 0.206428 -0.18719
0.0216705 0.206955 -0.187661
0.0226663 0.207459 -0.187634
0.0226612 0.208458 -0.187578
0.0226562 0.209456 -0.187522
0.0226512 0.210455 -0.187466
0.0226462 0.211453 -0.18741
0.0226411 0.212452 -0.187355
0.0226361 0.21345 -0.187299
0.0226311 0.214448 -0.187243
0.0226261 0.215447 -0.187187
0.0216232 0.216412 -0.186632
0.0216253 0.215941 -0.187159
0.0216676 0.207482 -0.188132
0.0216626 0.208481 -0.188076
0.0216575 0.209479 -0.188021
0.0216525 0.210478 -0.187965
0.0216475 0.211476 -0.187909
0.0216425 0.212474 -0.187853
0.0216375 0.213473 -0.187797
0.0216324 0.214471 -0.187742
0.0216274 0.21547 -0.187686
0.0195316 0.237363 -0.167431
0.0195337 0.236892 -0.167958
0.0205294 0.237396 -0.167931
0.0205244 0.238395 -0.167875
0.0195266 0.238362 -0.167375
0.0205194 0.239393 -0.167819
0.0195216 0.23936 -0.167319
0.0195186 0.239887 -0.167791
0.0195358 0.236421 -0.168485
0.0195379 0.235949 -0.169012
0.0205336 0.236454 -0.168985
0.0195157 0.240414 -0.168262
0.0205085 0.241446 -0.168706
0.0195107 0.241413 -0.168206
0.0195077 0.24194 -0.168677
0.0205327 0.236509 -0.169983
0.019537 0.236005 -0.170011
0.0205026 0.2425 -0.169649
0.0195048 0.242467 -0.169149
0.0195018 0.242994 -0.16962
0.0205319 0.236565 -0.170982
0.0195362 0.236061 -0.171009
0.0204967 0.243554 -0.170591
0.0194989 0.243521 -0.170091
0.019496 0.244048 -0.170563
0.020531 0.236621 -0.17198
0.0195353 0.236117 -0.172008
0.0204959 0.24361 -0.17159
0.0194951 0.244104 -0.171561
0.0205302 0.236677 -0.172979
0.0195344 0.236173 -0.173006
0.020495 0.243666 -0.172588
0.0194943 0.24416 -0.17256
0.0195315 0.2367 -0.173477
0.0195286 0.237227 -0.173949
0.0194984 0.243217 -0.173614
0.0194964 0.243689 -0.173087
0.0195277 0.237283 -0.174947
0.0195026 0.242275 -0.174668
0.0195005 0.242746 -0.174141
0.0205226 0.237843 -0.175918
0.0195269 0.237338 -0.175946
0.0195068 0.241332 -0.175722
0.0195047 0.241803 -0.175195
0.0205217 0.237898 -0.176917
0.019526 0.237394 -0.176944
0.019511 0.240389 -0.176777
0.0195089 0.240861 -0.176249
0.0195231 0.237921 -0.177415
0.0195181 0.23892 -0.17736
0.019513 0.239918 -0.177304
0.0196729 0.208024 -0.180088
0.019675 0.207553 -0.180615
0.0206707 0.208057 -0.180588
0.0206657 0.209056 -0.180532
0.0196679 0.209023 -0.180032
0.0206607 0.210054 -0.180476
0.0196629 0.210021 -0.179976
0.0206556 0.211052 -0.18042
0.0196578 0.211019 -0.17992
0.0196549 0.211547 -0.180392
0.0196821 0.206083 -0.181198
0.0196842 0.205612 -0.181725
0.0206799 0.206116 -0.181698
0.0206749 0.207115 -0.181642
0.0196771 0.207082 -0.181142
0.0206699 0.208113 -0.181586
0.0206648 0.209111 -0.18153
0.0206598 0.21011 -0.181474
0.0206548 0.211108 -0.181419
0.019652 0.212074 -0.180863
0.0206498 0.212107 -0.181363
0.0206448 0.213105 -0.181307
0.0196469 0.213072 -0.180807
0.0206397 0.214104 -0.181251
0.0196419 0.214071 -0.180751
0.0206347 0.215102 -0.181195
0.0196369 0.215069 -0.180696
0.019634 0.215596 -0.181167
0.0196863 0.20514 -0.182252
0.0196884 0.204669 -0.182779
0.0206841 0.205173 -0.182752
0.0206791 0.206172 -0.182696
0.020674 0.20717 -0.18264
0.020669 0.208169 -0.182584
0.020664 0.209167 -0.182529
0.020659 0.210166 -0.182473
0.0206539 0.211164 -0.182417
0.0206489 0.212162 -0.182361
0.0206439 0.213161 -0.182305
0.0206389 0.214159 -0.18225
0.0206339 0.215158 -0.182194
0.019631 0.216123 -0.181638
0.0206288 0.216156 -0.182138
0.0196281 0.21665 -0.18211
0.0196904 0.204198 -0.183306
0.0196925 0.203727 -0.183833
0.0206882 0.204231 -0.183806
0.0206832 0.205229 -0.18375
0.0206782 0.206228 -0.183694
0.0206732 0.207226 -0.183639
0.020638 0.214215 -0.183248
0.020633 0.215214 -0.183192
0.020628 0.216212 -0.183136
0.0196251 0.217177 -0.182581
0.020623 0.21721 -0.183081
0.0206179 0.218209 -0.183025
0.0196201 0.218176 -0.182525
0.0196172 0.218703 -0.182996
0.0196946 0.203255 -0.18436
0.0196967 0.202784 -0.184888
0.0206924 0.203288 -0.18486
0.0206874 0.204287 -0.184804
0.0206824 0.205285 -0.184749
0.0206774 0.206283 -0.184693
0.0206271 0.216268 -0.184135
0.0206221 0.217266 -0.184079
0.0206171 0.218265 -0.184023
0.0196143 0.21923 -0.183468
0.0206121 0.219263 -0.183968
0.0196113 0.219757 -0.183939
0.0196988 0.202313 -0.185415
0.0197009 0.201841 -0.185942
0.0206966 0.202346 -0.185915
0.0206916 0.203344 -0.185859
0.0206865 0.204342 -0.185803
0.0206815 0.205341 -0.185747
0.0206213 0.217322 -0.185078
0.0206162 0.21832 -0.185022
0.0206112 0.219319 -0.184966
0.0196105 0.219813 -0.184937
0.0206957 0.202401 -0.186913
0.0197 0.201897 -0.18694
0.0206907 0.2034 -0.186857
0.0206857 0.204398 -0.186801
0.0206807 0.205397 -0.186746
0.0206204 0.217378 -0.186076
0.0206154 0.218376 -0.18602
0.0206104 0.219375 -0.185964
0.0196096 0.219869 -0.185936
0.0206949 0.202457 -0.187911
0.0196992 0.201953 -0.187939
0.0206899 0.203456 -0.187856
0.0206848 0.204454 -0.1878
0.0206798 0.205452 -0.187744
0.0206748 0.206451 -0.187688
0.0206246 0.216435 -0.18713
0.0206196 0.217434 -0.187074
0.0206145 0.218432 -0.187019
0.0206095 0.21943 -0.186963
0.0196088 0.219925 -0.186934
0.0196962 0.20248 -0.18841
0.0196912 0.203478 -0.188354
0.0196862 0.204477 -0.188298
0.0196812 0.205475 -0.188243
0.0196761 0.206474 -0.188187
0.0196711 0.207472 -0.188131
0.0196661 0.208471 -0.188075
0.0196611 0.209469 -0.188019
0.019656 0.210467 -0.187964
0.019651 0.211466 -0.187908
0.019646 0.212464 -0.187852
0.019641 0.213463 -0.187796
0.019636 0.214461 -0.18774
0.0196309 0.21546 -0.187685
0.0196259 0.216458 -0.187629
0.0196209 0.217456 -0.187573
0.0196159 0.218455 -0.187517
0.0196108 0.219453 -0.187461
0.0176993 0.205844 -0.159175
0.0177014 0.205373 -0.159702
0.0186971 0.205877 -0.159675
0.0186921 0.206875 -0.159619
0.0176943 0.206842 -0.159119
0.0176914 0.207369 -0.159591
0.0177035 0.204901 -0.160229
0.0177056 0.20443 -0.160756
0.0187013 0.204934 -0.160729
0.0186963 0.205933 -0.160673
0.0186913 0.206931 -0.160618
0.0176884 0.207897 -0.160062
0.0186862 0.20793 -0.160562
0.0186812 0.208928 -0.160506
0.0176834 0.208895 -0.160006
0.0186762 0.209926 -0.16045
0.0176784 0.209893 -0.15995
0.0186712 0.210925 -0.160394
0.0176734 0.210892 -0.159895
0.0186661 0.211923 -0.160339
0.0176683 0.21189 -0.159839
0.0186611 0.212922 -0.160283
0.0176633 0.212889 -0.159783
0.0186561 0.21392 -0.160227
0.0176583 0.213887 -0.159727
0.0186511 0.214919 -0.160171
0.0176533 0.214886 -0.159671
0.0186461 0.215917 -0.160115
0.0176482 0.215884 -0.159616
0.018641 0.216915 -0.16006
0.0176432 0.216882 -0.15956
0.0176403 0.21741 -0.160031
0.0177077 0.203959 -0.161284
0.0177097 0.203487 -0.161811
0.0187055 0.203992 -0.161783
0.0187005 0.20499 -0.161728
0.0186954 0.205988 -0.161672
0.0186904 0.206987 -0.161616
0.0186854 0.207985 -0.16156
0.0186804 0.208984 -0.161504
0.0186753 0.209982 -0.161449
0.0186703 0.210981 -0.161393
0.0186653 0.211979 -0.161337
0.0186603 0.212977 -0.161281
0.0186553 0.213976 -0.161225
0.0186502 0.214974 -0.16117
0.0186452 0.215973 -0.161114
0.0186402 0.216971 -0.161058
0.0176374 0.217937 -0.160502
0.0186352 0.21797 -0.161002
0.0186301 0.218968 -0.160946
0.0176323 0.218935 -0.160447
0.0186251 0.219967 -0.160891
0.0176273 0.219934 -0.160391
0.0186201 0.220965 -0.160835
0.0176223 0.220932 -0.160335
0.0186151 0.221963 -0.160779
0.0176173 0.22193 -0.160279
0.0176143 0.222458 -0.160751
0.0177068 0.204014 -0.162282
0.0177039 0.204542 -0.162753
0.0186996 0.205046 -0.162726
0.0186946 0.206044 -0.16267
0.0186896 0.207043 -0.162614
0.0186845 0.208041 -0.162559
0.0186795 0.20904 -0.162503
0.0186745 0.210038 -0.162447
0.0186695 0.211036 -0.162391
0.0186644 0.212035 -0.162335
0.0186594 0.213033 -0.16228
0.0186544 0.214032 -0.162224
0.0186494 0.21503 -0.162168
0.0186444 0.216029 -0.162112
0.0186393 0.217027 -0.162056
0.0186343 0.218025 -0.162001
0.0186293 0.219024 -0.161945
0.0186243 0.220022 -0.161889
0.0186192 0.221021 -0.161833
0.0186142 0.222019 -0.161777
0.0176135 0.222513 -0.161749
0.0186988 0.205102 -0.163724
0.017703 0.204597 -0.163752
0.0186937 0.2061 -0.163669
0.0186887 0.207099 -0.163613
0.0186837 0.208097 -0.163557
0.0186787 0.209095 -0.163501
0.0186736 0.210094 -0.163445
0.0186686 0.211092 -0.16339
0.0186636 0.212091 -0.163334
0.0186586 0.213089 -0.163278
0.0186535 0.214088 -0.163222
0.0186485 0.215086 -0.163166
0.0186435 0.216084 -0.163111
0.0186385 0.217083 -0.163055
0.0186335 0.218081 -0.162999
0.0186284 0.21908 -0.162943
0.0186234 0.220078 -0.162887
0.0186184 0.221077 -0.162832
0.0186134 0.222075 -0.162776
0.0176126 0.222569 -0.162747
0.0186979 0.205157 -0.164723
0.0177022 0.204653 -0.16475
0.0186929 0.206156 -0.164667
0.0186879 0.207154 -0.164611
0.0186828 0.208153 -0.164556
0.0186778 0.209151 -0.1645
0.0186728 0.21015 -0.164444
0.0186678 0.211148 -0.164388
0.0186627 0.212146 -0.164332
0.0186577 0.213145 -0.164277
0.0186527 0.214143 -0.164221
0.0186477 0.215142 -0.164165
0.0186427 0.21614 -0.164109
0.0186376 0.217139 -0.164053
0.0186326 0.218137 -0.163998
0.0186276 0.219135 -0.163942
0.0186226 0.220134 -0.163886
0.0186175 0.221132 -0.16383
0.0176147 0.222098 -0.163275
0.0176168 0.221626 -0.163802
0.0176992 0.20518 -0.165222
0.0176963 0.205707 -0.165693
0.018692 0.206212 -0.165666
0.018687 0.20721 -0.16561
0.018682 0.208209 -0.165554
0.018677 0.209207 -0.165498
0.0186719 0.210205 -0.165442
0.0186669 0.211204 -0.165387
0.0186619 0.212202 -0.165331
0.0186569 0.213201 -0.165275
0.0186518 0.214199 -0.165219
0.0186468 0.215198 -0.165163
0.0186418 0.216196 -0.165108
0.0186368 0.217194 -0.165052
0.0186318 0.218193 -0.164996
0.0186267 0.219191 -0.16494
0.0186217 0.22019 -0.164884
0.0176189 0.221155 -0.164329
0.017621 0.220684 -0.164856
0.0176934 0.206235 -0.166164
0.0176883 0.207233 -0.166108
0.0176854 0.20776 -0.16658
0.0186811 0.208264 -0.166552
0.0186761 0.209263 -0.166497
0.0186711 0.210261 -0.166441
0.0186661 0.21126 -0.166385
0.018661 0.212258 -0.166329
0.018656 0.213256 -0.166273
0.018651 0.214255 -0.166218
0.018646 0.215253 -0.166162
0.018641 0.216252 -0.166106
0.0186359 0.21725 -0.16605
0.0186309 0.218249 -0.165994
0.0186259 0.219247 -0.165939
0.0176231 0.220213 -0.165383
0.0176251 0.219741 -0.16591
0.0176825 0.208287 -0.167051
0.0176774 0.209286 -0.166995
0.0176745 0.209813 -0.167467
0.0186702 0.210317 -0.167439
0.0186652 0.211315 -0.167383
0.0186602 0.212314 -0.167328
0.0186552 0.213312 -0.167272
0.0186501 0.214311 -0.167216
0.0186451 0.215309 -0.16716
0.0186401 0.216308 -0.167104
0.0176373 0.217273 -0.166549
0.0176394 0.216802 -0.167076
0.0176322 0.218271 -0.166493
0.0176272 0.21927 -0.166437
0.0176716 0.21034 -0.167938
0.0176666 0.211338 -0.167882
0.0176615 0.212337 -0.167826
0.0176565 0.213335 -0.167771
0.0176515 0.214334 -0.167715
0.0176465 0.215332 -0.167659
0.0176414 0.21633 -0.167603
0.0175452 0.235356 -0.167541
0.0175472 0.234885 -0.168068
0.018543 0.235389 -0.168041
0.018538 0.236388 -0.167985
0.0175401 0.236355 -0.167486
0.0175351 0.237353 -0.16743
0.0175301 0.238352 -0.167374
0.0175251 0.23935 -0.167318
0.0185179 0.240381 -0.167762
0.0175201 0.240349 -0.167262
0.0185128 0.24138 -0.167706
0.017515 0.241347 -0.167207
0.0185078 0.242378 -0.167651
0.01751 0.242345 -0.167151
0.0175071 0.242872 -0.167622
0.0185421 0.235445 -0.16904
0.0175464 0.234941 -0.169067
0.018507 0.242434 -0.168649
0.0175041 0.2434 -0.168093
0.0185019 0.243433 -0.168593
0.0175012 0.243927 -0.168565
0.0185413 0.235501 -0.170038
0.0175455 0.234997 -0.170065
0.0185011 0.243488 -0.169592
0.0174983 0.244454 -0.169036
0.0184961 0.244487 -0.169536
0.0174953 0.244981 -0.169507
0.0185404 0.235557 -0.171036
0.0175447 0.235052 -0.171064
0.0184952 0.244543 -0.170534
0.0174945 0.245037 -0.170506
0.0185396 0.235612 -0.172035
0.0175438 0.235108 -0.172062
0.0184944 0.244598 -0.171533
0.0174936 0.245093 -0.171504
0.0185387 0.235668 -0.173033
0.017543 0.235164 -0.173061
0.0184935 0.244654 -0.172531
0.0174928 0.245148 -0.172503
0.0175401 0.235691 -0.173532
0.0175371 0.236218 -0.174003
0.0185328 0.236723 -0.173976
0.0184977 0.243712 -0.173585
0.0174969 0.244206 -0.173557
0.0174949 0.244677 -0.17303
0.018532 0.236778 -0.174974
0.0175363 0.236274 -0.175002
0.0185019 0.242769 -0.17464
0.0175011 0.243263 -0.174611
0.017499 0.243734 -0.174084
0.017679 0.207847 -0.177091
0.0176811 0.207375 -0.177618
0.0186768 0.20788 -0.177591
0.0186718 0.208878 -0.177535
0.017674 0.208845 -0.177035
0.0186667 0.209877 -0.177479
0.0176689 0.209844 -0.17698
0.0186617 0.210875 -0.177424
0.0176639 0.210842 -0.176924
0.0186567 0.211873 -0.177368
0.0176589 0.21184 -0.176868
0.017656 0.212368 -0.177339
0.0185311 0.236834 -0.175973
0.0175354 0.23633 -0.176
0.0175103 0.241322 -0.175721
0.0175082 0.241793 -0.175194
0.0175032 0.242792 -0.175138
0.0176882 0.205906 -0.178201
0.0176903 0.205434 -0.178728
0.018686 0.205939 -0.178701
0.018681 0.206937 -0.178645
0.0176832 0.206904 -0.178146
0.0186759 0.207935 -0.17859
0.0186709 0.208934 -0.178534
0.0186659 0.209932 -0.178478
0.0186609 0.210931 -0.178422
0.0186558 0.211929 -0.178366
0.017653 0.212895 -0.177811
0.0186508 0.212928 -0.178311
0.0186458 0.213926 -0.178255
0.017648 0.213893 -0.177755
0.0176451 0.21442 -0.178226
0.0185303 0.23689 -0.176971
0.0175346 0.236386 -0.176999
0.0175145 0.240379 -0.176775
0.0175124 0.240851 -0.176248
0.0176974 0.203965 -0.179311
0.0176995 0.203493 -0.179838
0.0186952 0.203998 -0.179811
0.0186902 0.204996 -0.179755
0.0176923 0.204963 -0.179256
0.0186851 0.205994 -0.1797
0.0186801 0.206993 -0.179644
0.0186751 0.207991 -0.179588
0.0186701 0.20899 -0.179532
0.018665 0.209988 -0.179476
0.01866 0.210987 -0.179421
0.018655 0.211985 -0.179365
0.01865 0.212983 -0.179309
0.018645 0.213982 -0.179253
0.0176421 0.214947 -0.178698
0.0186399 0.21498 -0.179197
0.0186349 0.215979 -0.179142
0.0176371 0.215946 -0.178642
0.0176342 0.216473 -0.179113
0.0175316 0.236913 -0.17747
0.0175266 0.237911 -0.177414
0.0175216 0.23891 -0.177358
0.0175166 0.239908 -0.177303
0.0177015 0.203022 -0.180366
0.0177036 0.202551 -0.180893
0.0186993 0.203055 -0.180865
0.0186943 0.204053 -0.18081
0.0186893 0.205052 -0.180754
0.0186843 0.20605 -0.180698
0.0186793 0.207049 -0.180642
0.0186541 0.212041 -0.180363
0.0186491 0.213039 -0.180307
0.0186441 0.214038 -0.180252
0.0186391 0.215036 -0.180196
0.0186341 0.216034 -0.18014
0.0176312 0.217 -0.179584
0.018629 0.217033 -0.180084
0.018624 0.218031 -0.180028
0.0176262 0.217998 -0.179529
0.0176233 0.218525 -0.18
0.0177057 0.202079 -0.18142
0.0177078 0.201608 -0.181947
0.0187035 0.202112 -0.18192
0.0186985 0.203111 -0.181864
0.0186935 0.204109 -0.181808
0.0186885 0.205108 -0.181752
0.0186332 0.21609 -0.181138
0.0186282 0.217089 -0.181083
0.0186232 0.218087 -0.181027
0.0176203 0.219053 -0.180471
0.0186181 0.219086 -0.180971
0.0176174 0.21958 -0.180943
0.0187027 0.202168 -0.182918
0.0177069 0.201664 -0.182945
0.0186976 0.203166 -0.182862
0.0186926 0.204165 -0.182806
0.0186273 0.217144 -0.182081
0.0186223 0.218143 -0.182025
0.0186173 0.219141 -0.181969
0.0176165 0.219636 -0.181941
0.017709 0.201192 -0.183473
0.0177111 0.200721 -0.184
0.0187068 0.201225 -0.183972
0.0187018 0.202224 -0.183917
0.0186968 0.203222 -0.183861
0.0186164 0.219197 -0.182968
0.0176136 0.220163 -0.182412
0.0186114 0.220196 -0.182912
0.0176107 0.22069 -0.182884
0.0177132 0.20025 -0.184527
0.0177153 0.199779 -0.185054
0.018711 0.200283 -0.185027
0.018706 0.201281 -0.184971
0.018701 0.20228 -0.184915
0.0186106 0.220251 -0.183911
0.0176077 0.221217 -0.183355
0.0186055 0.22125 -0.183855
0.0176048 0.221744 -0.183826
0.0177174 0.199307 -0.185581
0.0177195 0.198836 -0.186108
0.0187152 0.19934 -0.186081
0.0187102 0.200339 -0.186025
0.0187051 0.201337 -0.185969
0.0186097 0.220307 -0.184909
0.0186047 0.221306 -0.184853
0.0176039 0.2218 -0.184825
0.0187143 0.199396 -0.187079
0.0177186 0.198892 -0.187107
0.0187093 0.200394 -0.187023
0.0187043 0.201393 -0.186968
0.0186089 0.220363 -0.185907
0.0186038 0.221361 -0.185852
0.0176031 0.221856 -0.185823
0.0177157 0.199419 -0.187578
0.0177127 0.199946 -0.188049
0.0187085 0.20045 -0.188022
0.0187034 0.201449 -0.187966
0.018608 0.220419 -0.186906
0.018603 0.221417 -0.18685
0.0176022 0.221911 -0.186822
0.0177098 0.200473 -0.188521
0.0177048 0.201471 -0.188465
0.0176998 0.20247 -0.188409
0.0176947 0.203468 -0.188353
0.0176897 0.204467 -0.188297
0.0176847 0.205465 -0.188242
0.0176797 0.206464 -0.188186
0.0176746 0.207462 -0.18813
0.0176696 0.20846 -0.188074
0.0176646 0.209459 -0.188018
0.0176596 0.210457 -0.187963
0.0176546 0.211456 -0.187907
0.0176495 0.212454 -0.187851
0.0176445 0.213453 -0.187795
0.0176395 0.214451 -0.187739
0.0176345 0.215449 -0.187684
0.0176315 0.215977 -0.188155
0.0186272 0.216481 -0.188128
0.0186222 0.217479 -0.188072
0.0186172 0.218478 -0.188016
0.0186122 0.219476 -0.18796
0.0186072 0.220475 -0.187904
0.0186021 0.221473 -0.187849
0.0176014 0.221967 -0.18782
0.0176286 0.216504 -0.188626
0.0176236 0.217502 -0.18857
0.0176185 0.218501 -0.188515
0.0176135 0.219499 -0.188459
0.0176085 0.220497 -0.188403
0.0176035 0.221496 -0.188347
0.0157229 0.20184 -0.159397
0.015725 0.201369 -0.159924
0.0167207 0.201873 -0.159897
0.0167157 0.202872 -0.159841
0.0157179 0.202839 -0.159341
0.0167107 0.20387 -0.159785
0.0157129 0.203837 -0.159286
0.0167057 0.204868 -0.15973
0.0157079 0.204835 -0.15923
0.0157028 0.205834 -0.159174
0.0156978 0.206832 -0.159118
0.0166906 0.207864 -0.159562
0.0156928 0.207831 -0.159062
0.0156899 0.208358 -0.159534
0.0157271 0.200897 -0.160451
0.0157292 0.200426 -0.160979
0.0167249 0.20093 -0.160951
0.0167199 0.201929 -0.160895
0.0167149 0.202927 -0.16084
0.0167098 0.203926 -0.160784
0.0156869 0.208885 -0.160005
0.0156819 0.209883 -0.159949
0.0156769 0.210882 -0.159893
0.0156719 0.21188 -0.159838
0.0156668 0.212879 -0.159782
0.0156618 0.213877 -0.159726
0.0156568 0.214876 -0.15967
0.0156518 0.215874 -0.159614
0.0156467 0.216872 -0.159559
0.0166395 0.217904 -0.160003
0.0156417 0.217871 -0.159503
0.0166345 0.218902 -0.159947
0.0156367 0.218869 -0.159447
0.0166295 0.219901 -0.159891
0.0156317 0.219868 -0.159391
0.0166245 0.220899 -0.159835
0.0156267 0.220866 -0.159335
0.0166194 0.221897 -0.159779
0.0156216 0.221865 -0.15928
0.0156187 0.222392 -0.159751
0.0167241 0.200986 -0.16195
0.0157283 0.200482 -0.161977
0.016719 0.201985 -0.161894
0.016714 0.202983 -0.161838
0.0166136 0.222952 -0.160722
0.0156158 0.222919 -0.160222
0.0166086 0.22395 -0.160666
0.0156107 0.223917 -0.160166
0.0156078 0.224444 -0.160638
0.0167232 0.201042 -0.162948
0.0157275 0.200538 -0.162975
0.0167182 0.20204 -0.162892
0.0167132 0.203039 -0.162836
0.0167081 0.204037 -0.162781
0.0166127 0.223007 -0.161721
0.0166077 0.224006 -0.161665
0.015607 0.2245 -0.161636
0.0157246 0.201065 -0.163447
0.0157216 0.201592 -0.163918
0.0167173 0.202096 -0.163891
0.0167123 0.203095 -0.163835
0.0167073 0.204093 -0.163779
0.0166119 0.223063 -0.162719
0.0166069 0.224062 -0.162663
0.015604 0.225027 -0.162108
0.0166018 0.22506 -0.162607
0.0156011 0.225554 -0.162579
0.0167165 0.202152 -0.164889
0.0157208 0.201648 -0.164917
0.0167115 0.20315 -0.164833
0.0167064 0.204149 -0.164778
0.016616 0.222121 -0.163773
0.016611 0.223119 -0.163717
0.016606 0.224117 -0.163662
0.0156032 0.225083 -0.163106
0.0156053 0.224612 -0.163633
0.0157178 0.202175 -0.165388
0.0157149 0.202702 -0.165859
0.0167106 0.203206 -0.165832
0.0167056 0.204205 -0.165776
0.0167006 0.205203 -0.16572
0.0166202 0.221178 -0.164827
0.0166152 0.222176 -0.164772
0.0166102 0.223175 -0.164716
0.0166051 0.224173 -0.16466
0.0156044 0.224667 -0.164632
0.0167098 0.203262 -0.16683
0.015714 0.202758 -0.166858
0.0167047 0.204261 -0.166774
0.0166997 0.205259 -0.166719
0.0166947 0.206257 -0.166663
0.0166897 0.207256 -0.166607
0.0166244 0.220235 -0.165882
0.0166194 0.221234 -0.165826
0.0166143 0.222232 -0.16577
0.0166093 0.223231 -0.165714
0.0156065 0.224196 -0.165159
0.0156086 0.223725 -0.165686
0.0157111 0.203285 -0.167329
0.0157082 0.203812 -0.1678
0.0167039 0.204316 -0.167773
0.0166989 0.205315 -0.167717
0.0166938 0.206313 -0.167661
0.0166888 0.207312 -0.167606
0.0166838 0.20831 -0.16755
0.0166788 0.209308 -0.167494
0.0166386 0.217296 -0.167048
0.0166336 0.218294 -0.166992
0.0166286 0.219293 -0.166936
0.0166235 0.220291 -0.16688
0.0166185 0.22129 -0.166824
0.0166135 0.222288 -0.166769
0.0156107 0.223254 -0.166213
0.0156127 0.222782 -0.16674
0.0155554 0.234236 -0.165599
0.0155575 0.233765 -0.166126
0.0165532 0.234269 -0.166099
0.0165482 0.235268 -0.166043
0.0155504 0.235235 -0.165543
0.0155475 0.235762 -0.166015
0.0155403 0.237232 -0.165432
0.0155424 0.23676 -0.165959
0.0165382 0.237264 -0.165932
0.0165331 0.238263 -0.165876
0.0155353 0.23823 -0.165376
0.0165281 0.239261 -0.16582
0.0155303 0.239228 -0.16532
0.0165231 0.24026 -0.165764
0.0155253 0.240227 -0.165264
0.0165181 0.241258 -0.165708
0.0155203 0.241225 -0.165209
0.016513 0.242257 -0.165653
0.0155152 0.242224 -0.165153
0.0155123 0.242751 -0.165624
0.0157052 0.204339 -0.168272
0.0157023 0.204866 -0.168743
0.016698 0.205371 -0.168716
0.016693 0.206369 -0.16866
0.016688 0.207367 -0.168604
0.016683 0.208366 -0.168548
0.0166779 0.209364 -0.168492
0.0166729 0.210363 -0.168437
0.0166679 0.211361 -0.168381
0.0166629 0.21236 -0.168325
0.0166578 0.213358 -0.168269
0.0166528 0.214356 -0.168213
0.0166478 0.215355 -0.168158
0.0166428 0.216353 -0.168102
0.0166378 0.217352 -0.168046
0.0166327 0.21835 -0.16799
0.0166277 0.219349 -0.167934
0.0166227 0.220347 -0.167879
0.0166177 0.221345 -0.167823
0.0156148 0.222311 -0.167267
0.0156169 0.22184 -0.167794
0.0155596 0.233294 -0.166653
0.0155617 0.232822 -0.167181
0.0165574 0.233327 -0.167153
0.0165524 0.234325 -0.167097
0.0165473 0.235323 -0.167042
0.0155445 0.236289 -0.166486
0.0165423 0.236322 -0.166986
0.0165373 0.23732 -0.16693
0.0165323 0.238319 -0.166874
0.0165273 0.239317 -0.166818
0.0165222 0.240316 -0.166763
0.0165172 0.241314 -0.166707