<VTKFile type="UnstructuredGrid" version="0.1" byte_order="BigEndian">
  <UnstructuredGrid>
    <Piece NumberOfPoints="12966" NumberOfCells="25936">
      <PointData>
        <DataArray type="Float64" Name="position" NumberOfComponents="3" format="ascii">
0.0626527 -0.171816 -1.06188
0.0626702 -0.172355 -1.06234
0.0636542 -0.171826 -1.06238
0.0626389 -0.171359 -1.06242
0.0626876 -0.172895 -1.0628
0.0627051 -0.173434 -1.06325
0.0636891 -0.172905 -1.06329
0.0636579 -0.171909 -1.06338
0.0626251 -0.170903 -1.06296
0.0636266 -0.170913 -1.06346
0.0626113 -0.170446 -1.0635
0.0627226 -0.173974 -1.06371
0.0627401 -0.174513 -1.06417
0.0637241 -0.173984 -1.06421
0.0636928 -0.172988 -1.06429
0.0636616 -0.171992 -1.06437
0.0636303 -0.170995 -1.06445
0.062615 -0.170529 -1.0645
0.0637278 -0.174067 -1.0652
0.0627438 -0.174596 -1.06516
0.0636965 -0.17307 -1.06529
0.0636652 -0.172074 -1.06537
0.063634 -0.171078 -1.06545
0.0626187 -0.170612 -1.06549
0.0627612 -0.175136 -1.06562
0.0627787 -0.175675 -1.06608
0.0637627 -0.175145 -1.06612
0.0637315 -0.174149 -1.0662
0.0637002 -0.173153 -1.06628
0.0636689 -0.172157 -1.06637
0.0636377 -0.171161 -1.06645
0.0626224 -0.170695 -1.06649
0.0637664 -0.175228 -1.06711
0.0627824 -0.175758 -1.06707
0.0637351 -0.174232 -1.0672
0.0637039 -0.173236 -1.06728
0.0636726 -0.17224 -1.06736
0.0636413 -0.171244 -1.06744
0.0626261 -0.170778 -1.06749
0.0637701 -0.175311 -1.06811
0.0627861 -0.175841 -1.06807
0.0637388 -0.174315 -1.06819
0.0637076 -0.173319 -1.06828
0.0636763 -0.172323 -1.06836
0.063645 -0.171327 -1.06844
0.0626297 -0.17086 -1.06848
0.0637738 -0.175394 -1.06911
0.0627898 -0.175924 -1.06907
0.0637425 -0.174398 -1.06919
0.0637112 -0.173402 -1.06927
0.06368 -0.172406 -1.06935
0.0636487 -0.17141 -1.06944
0.0626334 -0.170943 -1.06948
0.0637775 -0.175477 -1.0701
0.0627935 -0.176006 -1.07006
0.0637462 -0.174481 -1.07019
0.0637149 -0.173485 -1.07027
0.0636837 -0.172489 -1.07035
0.0636524 -0.171493 -1.07043
0.0626371 -0.171026 -1.07048
0.0637812 -0.17556 -1.0711
0.0627971 -0.176089 -1.07106
0.0637499 -0.174564 -1.07118
0.0637186 -0.173568 -1.07126
0.0636873 -0.172572 -1.07135
0.0626546 -0.171566 -1.07093
0.0626721 -0.172105 -1.07139
0.0627833 -0.175633 -1.0716
0.0627695 -0.175176 -1.07214
0.0637536 -0.174647 -1.07218
0.0637223 -0.173651 -1.07226
0.0626895 -0.172645 -1.07185
0.062707 -0.173184 -1.0723
0.0627558 -0.174719 -1.07268
0.0627245 -0.173723 -1.07276
0.0607159 -0.173871 -1.06172
0.0607334 -0.17441 -1.06217
0.0617174 -0.173881 -1.06222
0.0616862 -0.172885 -1.0623
0.0606847 -0.172875 -1.0618
0.0606534 -0.171879 -1.06188
0.0616236 -0.170893 -1.06246
0.0606221 -0.170883 -1.06197
0.0606083 -0.170426 -1.06251
0.0617211 -0.173964 -1.06321
0.0607371 -0.174493 -1.06317
0.061596 -0.16998 -1.06354
0.0605945 -0.16997 -1.06305
0.0605807 -0.169513 -1.06359
0.0607408 -0.174576 -1.06417
0.0615997 -0.170062 -1.06454
0.0605844 -0.169596 -1.06458
0.0607583 -0.175116 -1.06462
0.0607757 -0.175655 -1.06508
0.0617597 -0.175126 -1.06512
0.0616034 -0.170145 -1.06554
0.0605881 -0.169679 -1.06558
0.0607794 -0.175738 -1.06608
0.0616071 -0.170228 -1.06653
0.0605918 -0.169762 -1.06658
0.0607969 -0.176277 -1.06653
0.0608144 -0.176817 -1.06699
0.0617984 -0.176287 -1.06703
0.0616108 -0.170311 -1.06753
0.0605955 -0.169844 -1.06757
0.0618021 -0.17637 -1.06803
0.060818 -0.1769 -1.06799
0.0616145 -0.170394 -1.06853
0.0605992 -0.169927 -1.06857
0.0608355 -0.177439 -1.06845
0.060853 -0.177979 -1.0689
0.061837 -0.177449 -1.06894
0.0618057 -0.176453 -1.06903
0.0606341 -0.171006 -1.06948
0.0606166 -0.170467 -1.06903
0.0618407 -0.177532 -1.06994
0.0608567 -0.178062 -1.0699
0.0618094 -0.176536 -1.07002
0.0606378 -0.171089 -1.07048
0.0618444 -0.177615 -1.07094
0.0608604 -0.178144 -1.07089
0.0618131 -0.176619 -1.07102
0.0616568 -0.171638 -1.07143
0.0606415 -0.171172 -1.07148
0.0618481 -0.177698 -1.07193
0.0608641 -0.178227 -1.07189
0.0618168 -0.176702 -1.07201
0.0617855 -0.175706 -1.0721
0.0616917 -0.172717 -1.07235
0.0616605 -0.171721 -1.07243
0.0606452 -0.171255 -1.07247
0.0608503 -0.177771 -1.07243
0.0608365 -0.177314 -1.07297
0.0618205 -0.176785 -1.07301
0.0617892 -0.175788 -1.07309
0.0617579 -0.174792 -1.07318
0.0617267 -0.173796 -1.07326
0.0616954 -0.1728 -1.07334
0.0606626 -0.171794 -1.07293
0.0606801 -0.172334 -1.07339
0.0608227 -0.176857 -1.07351
0.0608089 -0.176401 -1.07405
0.0617929 -0.175871 -1.07409
0.0617616 -0.174875 -1.07417
0.0607289 -0.173869 -1.07376
0.0607463 -0.174409 -1.07422
0.0606976 -0.172873 -1.07384
0.0607951 -0.175944 -1.07459
0.0607638 -0.174948 -1.07467
0.0586817 -0.172855 -1.06081
0.0586992 -0.173394 -1.06126
0.0596832 -0.172865 -1.0613
0.0596519 -0.171869 -1.06139
0.0586504 -0.171859 -1.06089
0.0596206 -0.170873 -1.06147
0.0586191 -0.170863 -1.06097
0.0586053 -0.170406 -1.06151
0.0587166 -0.173934 -1.06172
0.0587341 -0.174473 -1.06218
0.059593 -0.16996 -1.06255
0.0585916 -0.16995 -1.06205
0.0585778 -0.169493 -1.06259
0.0587378 -0.174556 -1.06317
0.0585814 -0.169576 -1.06359
0.0587553 -0.175096 -1.06363
0.0587727 -0.175635 -1.06409
0.0597568 -0.175106 -1.06413
0.0595691 -0.169129 -1.06463
0.0585676 -0.169119 -1.06413
0.0585539 -0.168663 -1.06467
0.0587764 -0.175718 -1.06508
0.0595728 -0.169212 -1.06562
0.0585575 -0.168746 -1.06566
0.0587801 -0.175801 -1.06608
0.0595765 -0.169295 -1.06662
0.0585612 -0.168828 -1.06666
0.0587976 -0.17634 -1.06654
0.0588151 -0.17688 -1.06699
0.0595802 -0.169378 -1.06761
0.0585649 -0.168911 -1.06766
0.0588325 -0.177419 -1.06745
0.05885 -0.177959 -1.06791
0.059834 -0.177429 -1.06795
0.0595839 -0.169461 -1.06861
0.0585686 -0.168994 -1.06865
0.0588537 -0.178042 -1.0689
0.0596188 -0.17054 -1.06953
0.0586035 -0.170073 -1.06957
0.0585861 -0.169534 -1.06911
0.0588574 -0.178124 -1.0699
0.0596225 -0.170622 -1.07052
0.0586072 -0.170156 -1.07056
0.0588749 -0.178664 -1.07036
0.0588923 -0.179203 -1.07081
0.0598764 -0.178674 -1.07085
0.0596262 -0.170705 -1.07152
0.0586109 -0.170239 -1.07156
0.05988 -0.178757 -1.07185
0.058896 -0.179286 -1.07181
0.0586459 -0.171318 -1.07247
0.0586284 -0.170778 -1.07202
0.0598837 -0.17884 -1.07285
0.0588997 -0.179369 -1.07281
0.0598524 -0.177844 -1.07293
0.0586808 -0.172397 -1.07339
0.0586633 -0.171857 -1.07293
0.0588859 -0.178913 -1.07335
0.0588721 -0.178456 -1.07389
0.0598561 -0.177926 -1.07393
0.0598249 -0.17693 -1.07401
0.0597311 -0.173942 -1.07426
0.0587158 -0.173476 -1.0743
0.0586983 -0.172936 -1.07384
0.0598598 -0.178009 -1.07492
0.0588758 -0.178539 -1.07488
0.0598285 -0.177013 -1.07501
0.0597973 -0.176017 -1.07509
0.059766 -0.175021 -1.07517
0.0587507 -0.174555 -1.07522
0.0587332 -0.174015 -1.07476
0.058862 -0.178082 -1.07542
0.0588482 -0.177626 -1.07596
0.0598322 -0.177096 -1.076
0.0587995 -0.17609 -1.07559
0.0588169 -0.17663 -1.07605
0.0587682 -0.175094 -1.07567
0.0588344 -0.177169 -1.0765
0.0566824 -0.172918 -1.06081
0.0566998 -0.173457 -1.06127
0.0566511 -0.171922 -1.06089
0.0566198 -0.170926 -1.06097
0.056606 -0.170469 -1.06151
0.0567173 -0.173997 -1.06172
0.0567348 -0.174536 -1.06218
0.0565922 -0.170013 -1.06205
0.0565785 -0.169556 -1.06259
0.0567523 -0.175076 -1.06264
0.0567698 -0.175615 -1.06309
0.0577538 -0.175086 -1.06313
0.0575662 -0.169109 -1.06363
0.0565647 -0.169099 -1.06313
0.0565509 -0.168643 -1.06367
0.0567734 -0.175698 -1.06409
0.0565546 -0.168726 -1.06467
0.0567909 -0.176238 -1.06455
0.0568084 -0.176777 -1.065
0.0577924 -0.176248 -1.06504
0.0575423 -0.168279 -1.06571
0.0565408 -0.168269 -1.06521
0.056527 -0.167812 -1.06575
0.0577961 -0.17633 -1.06604
0.0568121 -0.17686 -1.066
0.0575459 -0.168362 -1.0667
0.0565307 -0.167895 -1.06675
0.0568295 -0.177399 -1.06646
0.056847 -0.177939 -1.06691
0.057831 -0.177409 -1.06695
0.0575496 -0.168445 -1.0677
0.0565343 -0.167978 -1.06774
0.0568507 -0.178022 -1.06791
0.0565693 -0.169057 -1.06866
0.0565518 -0.168518 -1.0682
0.0568682 -0.178561 -1.06837
0.0568857 -0.179101 -1.06882
0.0578697 -0.178571 -1.06886
0.0575883 -0.169607 -1.06961
0.056573 -0.16914 -1.06965
0.0578734 -0.178654 -1.06986
0.0568893 -0.179183 -1.06982
0.0575919 -0.169689 -1.07061
0.0565767 -0.169223 -1.07065
0.056893 -0.179266 -1.07082
0.0566116 -0.170302 -1.07156
0.0565941 -0.169762 -1.07111
0.0568967 -0.179349 -1.07181
0.0566466 -0.171381 -1.07248
0.0566291 -0.170841 -1.07202
0.0569004 -0.179432 -1.07281
0.0576655 -0.17193 -1.07343
0.0566502 -0.171464 -1.07347
0.0578881 -0.178985 -1.07385
0.0569041 -0.179515 -1.07381
0.0577005 -0.173009 -1.07434
0.0566852 -0.172542 -1.07439
0.0566677 -0.172003 -1.07393
0.0578918 -0.179068 -1.07484
0.0569078 -0.179598 -1.0748
0.0577354 -0.174088 -1.07526
0.0567202 -0.173621 -1.0753
0.0567027 -0.173082 -1.07484
0.0578955 -0.179151 -1.07584
0.0569114 -0.179681 -1.0758
0.0578642 -0.178155 -1.07592
0.0578017 -0.176163 -1.07609
0.0567864 -0.175696 -1.07613
0.0567689 -0.175157 -1.07567
0.0567376 -0.174161 -1.07576
0.0568977 -0.179224 -1.07634
0.0568839 -0.178767 -1.07688
0.0578679 -0.178238 -1.07692
0.0578366 -0.177242 -1.077
0.0568213 -0.176775 -1.07704
0.0568038 -0.176236 -1.07659
0.0568701 -0.178311 -1.07742
0.0568388 -0.177315 -1.0775
0.0546831 -0.172981 -1.06081
0.0547005 -0.17352 -1.06127
0.0546518 -0.171985 -1.06089
0.054638 -0.171528 -1.06143
0.055622 -0.170999 -1.06147
0.054718 -0.17406 -1.06172
0.0547355 -0.174599 -1.06218
0.0546242 -0.171072 -1.06197
0.0545929 -0.170076 -1.06206
0.0545791 -0.169619 -1.0626
0.054753 -0.175139 -1.06264
0.0547704 -0.175678 -1.06309
0.0545654 -0.169162 -1.06314
0.0545516 -0.168706 -1.06368
0.0547741 -0.175761 -1.06409
0.0545552 -0.168789 -1.06467
0.0547916 -0.1763 -1.06455
0.0548091 -0.17684 -1.06501
0.0545415 -0.168332 -1.06521
0.0545277 -0.167875 -1.06575
0.0548128 -0.176923 -1.066
0.0545313 -0.167958 -1.06675
0.0548302 -0.177462 -1.06646
0.0548477 -0.178002 -1.06692
0.054535 -0.168041 -1.06774
0.0548652 -0.178541 -1.06737
0.0548827 -0.179081 -1.06783
0.0558667 -0.178551 -1.06787
0.055554 -0.168591 -1.0687
0.0545387 -0.168124 -1.06874
0.0548864 -0.179164 -1.06883
0.0555577 -0.168673 -1.0697
0.0545424 -0.168207 -1.06974
0.0549038 -0.179703 -1.06928
0.0549213 -0.180242 -1.06974
0.0559053 -0.179713 -1.06978
0.0545773 -0.169286 -1.07065
0.0545599 -0.168746 -1.07019
0.055909 -0.179796 -1.07078
0.054925 -0.180325 -1.07074
0.0555963 -0.169835 -1.07161
0.054581 -0.169369 -1.07165
0.0559127 -0.179879 -1.07177
0.0549287 -0.180408 -1.07173
0.0556313 -0.170914 -1.07252
0.054616 -0.170448 -1.07256
0.0545985 -0.169908 -1.0721
0.0559164 -0.179962 -1.07277
0.0549324 -0.180491 -1.07273
0.0546509 -0.171526 -1.07348
0.0546335 -0.170987 -1.07302
0.0559201 -0.180044 -1.07377
0.054936 -0.180574 -1.07373
0.0546859 -0.172605 -1.07439
0.0546684 -0.172066 -1.07393
0.0559237 -0.180127 -1.07476
0.0549397 -0.180657 -1.07472
0.0547208 -0.173684 -1.0753
0.0547034 -0.173145 -1.07485
0.0559274 -0.18021 -1.07576
0.0549434 -0.18074 -1.07572
0.0557711 -0.17523 -1.07617
0.0547558 -0.174763 -1.07622
0.0547383 -0.174224 -1.07576
0.0559311 -0.180293 -1.07676
0.0549471 -0.180823 -1.07671
0.0558998 -0.179297 -1.07684
0.055806 -0.176309 -1.07709
0.0547908 -0.175842 -1.07713
0.0547733 -0.175303 -1.07667
0.0549333 -0.180366 -1.07725
0.0549195 -0.179909 -1.07779
0.0559035 -0.17938 -1.07783
0.0558723 -0.178384 -1.07792
0.054857 -0.177917 -1.07796
0.0548395 -0.177378 -1.0775
0.0548082 -0.176382 -1.07759
0.0549057 -0.179453 -1.07833
0.0548744 -0.178457 -1.07842
0.0536853 -0.173054 -1.06131
0.053654 -0.172058 -1.06139
0.0527187 -0.174123 -1.06173
0.0527362 -0.174662 -1.06218
0.0526874 -0.173127 -1.06181
0.0526562 -0.172131 -1.06189
0.0526249 -0.171135 -1.06198
0.0525936 -0.170138 -1.06206
0.0525798 -0.169682 -1.0626
0.0527537 -0.175202 -1.06264
0.0527711 -0.175741 -1.0631
0.0525661 -0.169225 -1.06314
0.0525523 -0.168769 -1.06368
0.0527748 -0.175824 -1.06409
0.05354 -0.168322 -1.06471
0.0525385 -0.168312 -1.06422
0.0525247 -0.167855 -1.06476
0.0527923 -0.176363 -1.06455
0.0528098 -0.176903 -1.06501
0.0525284 -0.167938 -1.06575
0.0528273 -0.177442 -1.06546
0.0528447 -0.177982 -1.06592
0.0538288 -0.177452 -1.06596
0.0535161 -0.167492 -1.06679
0.0525146 -0.167482 -1.06629
0.0525008 -0.167025 -1.06683
0.0528484 -0.178065 -1.06692
0.0535197 -0.167575 -1.06779
0.0525045 -0.167108 -1.06783
0.0528659 -0.178604 -1.06737
0.0528834 -0.179144 -1.06783
0.0535234 -0.167657 -1.06878
0.0525081 -0.167191 -1.06883
0.0529008 -0.179683 -1.06829
0.0529183 -0.180223 -1.06874
0.0539023 -0.179693 -1.06879
0.0525431 -0.16827 -1.06974
0.0525256 -0.16773 -1.06928
0.052922 -0.180305 -1.06974
0.0535621 -0.168819 -1.07069
0.0525468 -0.168353 -1.07074
0.0529395 -0.180845 -1.0702
0.052957 -0.181384 -1.07065
0.053941 -0.180855 -1.0707
0.0525817 -0.169432 -1.07165
0.0525643 -0.168892 -1.07119
0.0539447 -0.180938 -1.07169
0.0529606 -0.181467 -1.07165
0.0536007 -0.169981 -1.0726
0.0525854 -0.169514 -1.07265
0.0539483 -0.181021 -1.07269
0.0529643 -0.18155 -1.07265
0.0536357 -0.17106 -1.07352
0.0526204 -0.170593 -1.07356
0.0526029 -0.170054 -1.0731
0.053952 -0.181103 -1.07368
0.052968 -0.181633 -1.07364
0.0536706 -0.172139 -1.07443
0.0526553 -0.171672 -1.07447
0.0526378 -0.171133 -1.07402
0.0539557 -0.181186 -1.07468
0.0529717 -0.181716 -1.07464
0.0527215 -0.173747 -1.0753
0.0527041 -0.173208 -1.07485
0.0526728 -0.172212 -1.07493
0.0539594 -0.181269 -1.07568
0.0529754 -0.181799 -1.07564
0.0527565 -0.174826 -1.07622
0.052739 -0.174287 -1.07576
0.0539631 -0.181352 -1.07667
0.0529791 -0.181882 -1.07663
0.0528227 -0.176901 -1.07705
0.0528052 -0.176362 -1.07659
0.0538067 -0.176372 -1.07709
0.052774 -0.175366 -1.07667
0.0539668 -0.181435 -1.07767
0.0529827 -0.181964 -1.07763
0.0539355 -0.180439 -1.07775
0.0528577 -0.17798 -1.07796
0.0528402 -0.177441 -1.07751
0.052969 -0.181508 -1.07817
0.0529552 -0.181051 -1.07871
0.0539392 -0.180522 -1.07875
0.0529064 -0.179516 -1.07834
0.0529239 -0.180055 -1.07879
0.0528751 -0.17852 -1.07842
0.0529414 -0.180595 -1.07925
0.0507194 -0.174186 -1.06173
0.0507369 -0.174725 -1.06219
0.0506881 -0.17319 -1.06181
0.0506569 -0.172194 -1.06189
0.0506256 -0.171197 -1.06198
0.0505943 -0.170201 -1.06206
0.0505805 -0.169745 -1.0626
0.0507544 -0.175265 -1.06264
0.0507718 -0.175804 -1.0631
0.0505667 -0.169288 -1.06314
0.050553 -0.168832 -1.06368
0.0507893 -0.176344 -1.06356
0.0508068 -0.176883 -1.06401
0.0517908 -0.176353 -1.06405
0.0505392 -0.168375 -1.06422
0.0505254 -0.167918 -1.06476
0.0508243 -0.177422 -1.06447
0.0508417 -0.177962 -1.06493
0.0518258 -0.177432 -1.06497
0.0515131 -0.167472 -1.0658
0.0505116 -0.167462 -1.0653
0.0504978 -0.167005 -1.06584
0.0508592 -0.178501 -1.06538
0.0508767 -0.179041 -1.06584
0.0518607 -0.178511 -1.06588
0.0505015 -0.167088 -1.06684
0.0518644 -0.178594 -1.06688
0.0508804 -0.179124 -1.06684
0.0505052 -0.167171 -1.06783
0.0508979 -0.179663 -1.06729
0.0509153 -0.180203 -1.06775
0.0518994 -0.179673 -1.06779
0.0505088 -0.167254 -1.06883
0.0509328 -0.180742 -1.06821
0.0509503 -0.181282 -1.06866
0.0519343 -0.180752 -1.0687
0.0505438 -0.168333 -1.06974
0.0505263 -0.167793 -1.06929
0.0509678 -0.181821 -1.06912
0.0509852 -0.18236 -1.06958
0.0519693 -0.181831 -1.06962
0.051938 -0.180835 -1.0697
0.0505475 -0.168416 -1.07074
0.0519729 -0.181914 -1.07061
0.0509889 -0.182443 -1.07057
0.0515664 -0.168965 -1.07169
0.0505512 -0.168498 -1.07174
0.0519766 -0.181997 -1.07161
0.0509926 -0.182526 -1.07157
0.0505861 -0.169577 -1.07265
0.0505686 -0.169038 -1.07219
0.0510101 -0.183066 -1.07203
0.0510276 -0.183605 -1.07248
0.0520116 -0.183076 -1.07252
0.0519803 -0.18208 -1.07261
0.0506211 -0.170656 -1.07356
0.0506036 -0.170117 -1.07311
0.0520153 -0.183158 -1.07352
0.0510312 -0.183688 -1.07348
0.051984 -0.182162 -1.0736
0.050656 -0.171735 -1.07448
0.0506385 -0.171196 -1.07402
0.0520189 -0.183241 -1.07452
0.0510349 -0.183771 -1.07448
0.0519877 -0.182245 -1.0746
0.0507222 -0.17381 -1.07531
0.0507048 -0.173271 -1.07485
0.0506735 -0.172275 -1.07493
0.0520226 -0.183324 -1.07551
0.0510386 -0.183854 -1.07547
0.0519914 -0.182328 -1.0756
0.0507885 -0.175885 -1.07614
0.050771 -0.175346 -1.07568
0.0517725 -0.175356 -1.07618
0.0507397 -0.17435 -1.07576
0.0520263 -0.183407 -1.07651
0.0510423 -0.183937 -1.07647
0.051995 -0.182411 -1.07659
0.0508234 -0.176964 -1.07705
0.0508059 -0.176425 -1.07659
0.05203 -0.18349 -1.07751
0.051046 -0.184019 -1.07747
0.0519987 -0.182494 -1.07759
0.0508584 -0.178043 -1.07796
0.0508409 -0.177504 -1.07751
0.0510322 -0.183563 -1.07801
0.0510184 -0.183106 -1.07855
0.0520024 -0.182577 -1.07859
0.0519711 -0.181581 -1.07867
0.0519086 -0.179589 -1.07884
0.0508933 -0.179122 -1.07888
0.0508758 -0.178583 -1.07842
0.0510046 -0.18265 -1.07909
0.0509733 -0.181654 -1.07917
0.0509421 -0.180658 -1.07925
0.0509108 -0.179661 -1.07934
0.051253 -0.190285 -1.08648
0.0512704 -0.190824 -1.08693
0.0522544 -0.190295 -1.08698
0.0522232 -0.189299 -1.08706
0.0512217 -0.189289 -1.08656
0.0521919 -0.188303 -1.08714
0.0511904 -0.188293 -1.08664
0.0521606 -0.187307 -1.08722
0.0511591 -0.187297 -1.08673
0.0511454 -0.18684 -1.08727
0.0512879 -0.191364 -1.08739
0.0513054 -0.191903 -1.08785
0.0522894 -0.191374 -1.08789
0.0522581 -0.190378 -1.08797
0.0522269 -0.189382 -1.08805
0.0521956 -0.188386 -1.08814
0.0521643 -0.18739 -1.08822
0.051149 -0.186923 -1.08826
0.0513229 -0.192443 -1.08831
0.0513403 -0.192982 -1.08876
0.0523244 -0.192453 -1.0888
0.0522931 -0.191457 -1.08889
0.0522618 -0.190461 -1.08897
0.0522305 -0.189465 -1.08905
0.0511978 -0.188459 -1.08864
0.0512153 -0.188998 -1.08909
0.0511665 -0.187463 -1.08872
0.052328 -0.192536 -1.0898
0.051344 -0.193065 -1.08976
0.0522968 -0.19154 -1.08988
0.0522655 -0.190544 -1.08996
0.0512327 -0.189538 -1.08955
0.0512502 -0.190077 -1.09001
0.0513302 -0.192609 -1.0903
0.051299 -0.191613 -1.09038
0.0512677 -0.190616 -1.09046
0.0487201 -0.174249 -1.06173
0.0487376 -0.174788 -1.06219
0.0486888 -0.173253 -1.06181
0.0486576 -0.172256 -1.0619
0.0486263 -0.17126 -1.06198
0.048595 -0.170264 -1.06206
0.0495653 -0.169278 -1.06264
0.0485638 -0.169268 -1.06215
0.04855 -0.168812 -1.06269
0.0487863 -0.176324 -1.06256
0.0488038 -0.176863 -1.06302
0.0497878 -0.176334 -1.06306
0.0487551 -0.175328 -1.06264
0.0495377 -0.168365 -1.06372
0.0485362 -0.168355 -1.06323
0.0485224 -0.167898 -1.06376
0.0488213 -0.177403 -1.06348
0.0488388 -0.177942 -1.06393
0.0498228 -0.177412 -1.06397
0.0495101 -0.167452 -1.0648
0.0485086 -0.167442 -1.0643
0.0484948 -0.166985 -1.06484
0.0488562 -0.178481 -1.06439
0.0488737 -0.179021 -1.06485
0.0498577 -0.178491 -1.06489
0.0494825 -0.166539 -1.06588
0.048481 -0.166529 -1.06538
0.0484672 -0.166072 -1.06592
0.0488912 -0.17956 -1.0653
0.0489087 -0.1801 -1.06576
0.0498927 -0.17957 -1.0658
0.0494862 -0.166622 -1.06688
0.0484709 -0.166155 -1.06692
0.0489261 -0.180639 -1.06622
0.0489436 -0.181179 -1.06667
0.0499276 -0.180649 -1.06671
0.0498964 -0.179653 -1.0668
0.0485058 -0.167234 -1.06783
0.0484884 -0.166694 -1.06738
0.0489611 -0.181718 -1.06713
0.0489786 -0.182258 -1.06759
0.0499626 -0.181728 -1.06763
0.0499313 -0.180732 -1.06771
0.0485095 -0.167317 -1.06883
0.048996 -0.182797 -1.06804
0.0490135 -0.183337 -1.0685
0.0499975 -0.182807 -1.06854
0.0499663 -0.181811 -1.06862
0.0495285 -0.167866 -1.06978
0.0485132 -0.1674 -1.06983
0.049031 -0.183876 -1.06896
0.0490485 -0.184416 -1.06941
0.0500325 -0.183886 -1.06945
0.0500012 -0.18289 -1.06954
0.0485482 -0.168479 -1.07074
0.0485307 -0.167939 -1.07028
0.0500362 -0.183969 -1.07045
0.0490522 -0.184498 -1.07041
0.0500049 -0.182973 -1.07053
0.0485518 -0.168561 -1.07174
0.0500399 -0.184052 -1.07145
0.0490558 -0.184581 -1.07141
0.0500086 -0.183056 -1.07153
0.0485868 -0.16964 -1.07265
0.0485693 -0.169101 -1.07219
0.0490733 -0.185121 -1.07186
0.0490908 -0.18566 -1.07232
0.0500748 -0.185131 -1.07236
0.0500435 -0.184135 -1.07244
0.0486218 -0.170719 -1.07356
0.0486043 -0.17018 -1.07311
0.0500785 -0.185214 -1.07336
0.0490945 -0.185743 -1.07332
0.0500472 -0.184218 -1.07344
0.048688 -0.172794 -1.0744
0.0486705 -0.172255 -1.07394
0.049672 -0.172265 -1.07444
0.0486392 -0.171259 -1.07402
0.0500822 -0.185296 -1.07435
0.0490982 -0.185826 -1.07431
0.0500509 -0.1843 -1.07444
0.0487229 -0.173873 -1.07531
0.0487055 -0.173334 -1.07485
0.0500859 -0.185379 -1.07535
0.0491018 -0.185909 -1.07531
0.0500546 -0.184383 -1.07543
0.0487892 -0.175948 -1.07614
0.0487717 -0.175409 -1.07568
0.0487404 -0.174413 -1.07577
0.0500895 -0.185462 -1.07635
0.0491055 -0.185992 -1.07631
0.0500583 -0.184466 -1.07643
0.0488241 -0.177027 -1.07705
0.0488066 -0.176488 -1.0766
0.0490917 -0.185535 -1.07685
0.0490779 -0.185078 -1.07739
0.050062 -0.184549 -1.07743
0.0488591 -0.178106 -1.07797
0.0488416 -0.177567 -1.07751
0.0500656 -0.184632 -1.07842
0.0490816 -0.185161 -1.07838
0.0500344 -0.183636 -1.07851
0.0489253 -0.180181 -1.0788
0.0489078 -0.179642 -1.07834
0.0499093 -0.179652 -1.07884
0.0488765 -0.178645 -1.07842
0.0490678 -0.184705 -1.07892
0.049054 -0.184248 -1.07946
0.0500381 -0.183719 -1.0795
0.0500068 -0.182723 -1.07959
0.0499755 -0.181726 -1.07967
0.0489602 -0.18126 -1.07971
0.0489428 -0.18072 -1.07925
0.0490402 -0.183792 -1.08
0.049009 -0.182795 -1.08008
0.0489777 -0.181799 -1.08017
0.0492187 -0.189269 -1.08557
0.0492362 -0.189808 -1.08602
0.0502202 -0.189279 -1.08606
0.0501889 -0.188283 -1.08615
0.0491874 -0.188273 -1.08565
0.0501577 -0.187287 -1.08623
0.0491562 -0.187277 -1.08573
0.0501264 -0.186291 -1.08631
0.0491249 -0.186281 -1.08582
0.0500951 -0.185295 -1.0864
0.0490936 -0.185285 -1.0859
0.0500638 -0.184299 -1.08648
0.0490624 -0.184289 -1.08598
0.0500326 -0.183303 -1.08656
0.0490311 -0.183293 -1.08606
0.0490173 -0.182836 -1.0866
0.0493162 -0.19234 -1.08631
0.0493337 -0.19288 -1.08677
0.0503177 -0.19235 -1.08681
0.0502864 -0.191354 -1.08689
0.0492849 -0.191344 -1.0864
0.0492537 -0.190348 -1.08648
0.0501301 -0.186374 -1.08731
0.0500988 -0.185378 -1.08739
0.0500675 -0.184382 -1.08748
0.0490348 -0.183376 -1.08706
0.0490522 -0.183915 -1.08752
0.0493511 -0.193419 -1.08723
0.0493686 -0.193958 -1.08768
0.0503526 -0.193429 -1.08773
0.0503214 -0.192433 -1.08781
0.0501338 -0.186457 -1.08831
0.0501025 -0.18546 -1.08839
0.0490697 -0.184454 -1.08797
0.0490872 -0.184994 -1.08843
0.0493861 -0.194498 -1.08814
0.0494036 -0.195037 -1.0886
0.0503876 -0.194508 -1.08864
0.0503563 -0.193512 -1.08872
0.0502 -0.188532 -1.08914
0.0501687 -0.187535 -1.08922
0.0491534 -0.187069 -1.08926
0.0491359 -0.186529 -1.08881
0.0491047 -0.185533 -1.08889
0.049421 -0.195577 -1.08906
0.0494385 -0.196116 -1.08951
0.0504225 -0.195587 -1.08955
0.0503913 -0.194591 -1.08964
0.05036 -0.193595 -1.08972
0.0502349 -0.18961 -1.09005
0.0492196 -0.189144 -1.09009
0.0492022 -0.188604 -1.08964
0.0491709 -0.187608 -1.08972
0.0504262 -0.19567 -1.09055
0.0494422 -0.196199 -1.09051
0.050395 -0.194674 -1.09063
0.0503637 -0.193678 -1.09071
0.0503324 -0.192681 -1.0908
0.0493171 -0.192215 -1.09084
0.0492997 -0.191675 -1.09038
0.0492684 -0.190679 -1.09047
0.0492371 -0.189683 -1.09055
0.0494284 -0.195743 -1.09105
0.0494146 -0.195286 -1.09159
0.0503986 -0.194756 -1.09163
0.0493659 -0.19375 -1.09121
0.0493834 -0.19429 -1.09167
0.0493346 -0.192754 -1.0913
0.0494008 -0.194829 -1.09213
0.0466858 -0.173233 -1.06082
0.0467033 -0.173772 -1.06128
0.0476873 -0.173243 -1.06132
0.0476561 -0.172247 -1.0614
0.0466546 -0.172237 -1.0609
0.0476248 -0.17125 -1.06148
0.0466233 -0.17124 -1.06099
0.0475935 -0.170254 -1.06157
0.046592 -0.170244 -1.06107
0.0475623 -0.169258 -1.06165
0.0465608 -0.169248 -1.06115
0.047531 -0.168262 -1.06173
0.0465295 -0.168252 -1.06123
0.0465157 -0.167796 -1.06177
0.0467521 -0.175308 -1.06165
0.0467695 -0.175847 -1.06211
0.0477536 -0.175318 -1.06215
0.0467208 -0.174312 -1.06173
0.0475347 -0.168345 -1.06273
0.0465019 -0.167339 -1.06231
0.0475034 -0.167349 -1.06281
0.0464881 -0.166882 -1.06285
0.046787 -0.176387 -1.06256
0.0468045 -0.176926 -1.06302
0.0475071 -0.167432 -1.06381
0.0464743 -0.166426 -1.06339
0.0474758 -0.166436 -1.06389
0.0464605 -0.165969 -1.06393
0.0468532 -0.178462 -1.06339
0.0468707 -0.179001 -1.06385
0.0478547 -0.178471 -1.06389
0.046822 -0.177465 -1.06348
0.0474795 -0.166519 -1.06489
0.0464467 -0.165513 -1.06447
0.0474482 -0.165523 -1.06497
0.046433 -0.165056 -1.06501
0.0468882 -0.17954 -1.06431
0.0469057 -0.18008 -1.06476
0.0478897 -0.17955 -1.06481
0.0474519 -0.165606 -1.06597
0.0464366 -0.165139 -1.06601
0.0469544 -0.181615 -1.06514
0.0469719 -0.182155 -1.0656
0.0479559 -0.181625 -1.06564
0.0479246 -0.180629 -1.06572
0.0469232 -0.180619 -1.06522
0.0474556 -0.165688 -1.06696
0.0464403 -0.165222 -1.06701
0.0470206 -0.18369 -1.06597
0.0470381 -0.18423 -1.06643
0.0480221 -0.1837 -1.06647
0.0479909 -0.182704 -1.06655
0.0469894 -0.182694 -1.06605
0.0479596 -0.181708 -1.06663
0.0474906 -0.166767 -1.06788
0.0464753 -0.166301 -1.06792
0.0464578 -0.165761 -1.06746
0.0471807 -0.188754 -1.06655
0.0471981 -0.189293 -1.06701
0.0481822 -0.188764 -1.06705
0.0481509 -0.187768 -1.06713
0.0471494 -0.187758 -1.06663
0.0481196 -0.186771 -1.06721
0.0471181 -0.186761 -1.06672
0.0480884 -0.185775 -1.0673
0.0470869 -0.185765 -1.0668
0.0480571 -0.184779 -1.06738
0.0470556 -0.184769 -1.06688
0.0480258 -0.183783 -1.06746
0.0479946 -0.182787 -1.06755
0.0474942 -0.16685 -1.06887
0.046479 -0.166384 -1.06892
0.0472469 -0.190829 -1.06738
0.0472644 -0.191368 -1.06784
0.0482484 -0.190839 -1.06788
0.0482171 -0.189843 -1.06796
0.0472156 -0.189833 -1.06746
0.0481859 -0.188846 -1.06805
0.0481546 -0.18785 -1.06813
0.0481233 -0.186854 -1.06821
0.048092 -0.185858 -1.06829
0.0480608 -0.184862 -1.06838
0.0480295 -0.183866 -1.06846
0.0465139 -0.167463 -1.06983
0.0464964 -0.166923 -1.06937
0.0472818 -0.191908 -1.0683
0.0472993 -0.192447 -1.06875
0.0482833 -0.191918 -1.06879
0.0482521 -0.190921 -1.06888
0.0482208 -0.189925 -1.06896
0.0481895 -0.188929 -1.06904
0.0481583 -0.187933 -1.06912
0.048127 -0.186937 -1.06921
0.0480957 -0.185941 -1.06929
0.0480645 -0.184945 -1.06937
0.0465489 -0.168541 -1.07074
0.0465314 -0.168002 -1.07029
0.0472855 -0.19199 -1.06929
0.0472543 -0.190994 -1.06938
0.047223 -0.189998 -1.06946
0.0472092 -0.189542 -1.07
0.0481932 -0.189012 -1.07004
0.0481619 -0.188016 -1.07012
0.0481307 -0.18702 -1.0702
0.0480994 -0.186024 -1.07029
0.0480681 -0.185028 -1.07037
0.0465525 -0.168624 -1.07174
0.0471954 -0.189085 -1.07054
0.0471816 -0.188628 -1.07108
0.0481656 -0.188099 -1.07112
0.0481344 -0.187103 -1.0712
0.0481031 -0.186107 -1.07128
0.0480718 -0.185111 -1.07137
0.0465875 -0.169703 -1.07265
0.04657 -0.169164 -1.0722
0.0481693 -0.188182 -1.07211
0.0471853 -0.188711 -1.07207
0.048138 -0.187186 -1.0722
0.0481068 -0.18619 -1.07228
0.0466225 -0.170782 -1.07357
0.046605 -0.170243 -1.07311
0.0471715 -0.188255 -1.07261
0.0471577 -0.187798 -1.07315
0.0481417 -0.187269 -1.07319
0.0481105 -0.186273 -1.07328
0.0466887 -0.172857 -1.0744
0.0466712 -0.172318 -1.07394
0.0466399 -0.171322 -1.07402
0.0462647 -0.159369 -1.07502
0.0462822 -0.159908 -1.07548
0.0472662 -0.159379 -1.07552
0.0472349 -0.158383 -1.0756
0.0462334 -0.158373 -1.0751
0.0462196 -0.157916 -1.07564
0.0481454 -0.187352 -1.07419
0.0471614 -0.187881 -1.07415
0.0481141 -0.186355 -1.07427
0.0467236 -0.173936 -1.07531
0.0467062 -0.173397 -1.07485
0.0462997 -0.160448 -1.07593
0.0463171 -0.160987 -1.07639
0.0473011 -0.160458 -1.07643
0.0472699 -0.159462 -1.07651
0.0472386 -0.158466 -1.0766
0.0462058 -0.15746 -1.07618
0.0472073 -0.15747 -1.07668
0.046192 -0.157003 -1.07672
0.0481491 -0.187434 -1.07519
0.0471651 -0.187964 -1.07515
0.0481178 -0.186438 -1.07527
0.0467898 -0.176011 -1.07614
0.0467724 -0.175472 -1.07568
0.0467411 -0.174476 -1.07577
0.0463033 -0.160531 -1.07693
0.0462895 -0.160074 -1.07747
0.0472736 -0.159545 -1.07751
0.0472423 -0.158549 -1.07759
0.047211 -0.157552 -1.07767
0.0461783 -0.156546 -1.07726
0.0471798 -0.156556 -1.07776
0.0461645 -0.15609 -1.0778
0.0481528 -0.187517 -1.07618
0.0471688 -0.188047 -1.07614
0.0481215 -0.186521 -1.07627
0.0468248 -0.17709 -1.07706
0.0468073 -0.176551 -1.0766
0.0472772 -0.159627 -1.07851
0.0462932 -0.160157 -1.07847
0.047246 -0.158631 -1.07859
0.0472147 -0.157635 -1.07867
0.0471834 -0.156639 -1.07875
0.0461507 -0.155633 -1.07834
0.0471522 -0.155643 -1.07884
0.0461369 -0.155177 -1.07888
0.047155 -0.18759 -1.07668
0.0471412 -0.187134 -1.07722
0.0481252 -0.186604 -1.07726
0.0480939 -0.185608 -1.07735
0.046891 -0.179165 -1.07789
0.0468735 -0.178626 -1.07743
0.047875 -0.178636 -1.07793
0.0468423 -0.177629 -1.07751
0.0462794 -0.1597 -1.079
0.0462656 -0.159244 -1.07954
0.0472497 -0.158714 -1.07959
0.0472184 -0.157718 -1.07967
0.0471871 -0.156722 -1.07975
0.0471559 -0.155726 -1.07983
0.0461406 -0.155259 -1.07988
0.0481289 -0.186687 -1.07826
0.0471449 -0.187216 -1.07822
0.0480976 -0.185691 -1.07834
0.046926 -0.180244 -1.0788
0.0469085 -0.179704 -1.07834
0.0472533 -0.158797 -1.08058
0.0462693 -0.159327 -1.08054
0.0472221 -0.157801 -1.08066
0.0471908 -0.156805 -1.08075
0.0471595 -0.155809 -1.08083
0.0461268 -0.154803 -1.08042
0.0471283 -0.154813 -1.08091
0.046113 -0.154346 -1.08096
0.0471311 -0.18676 -1.07876
0.0471173 -0.186303 -1.0793
0.0481013 -0.185774 -1.07934
0.04807 -0.184778 -1.07942
0.0469609 -0.181323 -1.07971
0.0469435 -0.180783 -1.07926
0.0462555 -0.15887 -1.08108
0.0462417 -0.158413 -1.08162
0.0472258 -0.157884 -1.08166
0.0471945 -0.156888 -1.08174
0.0471632 -0.155892 -1.08183
0.0471319 -0.154896 -1.08191
0.0461167 -0.154429 -1.08195
0.048105 -0.185857 -1.08034
0.047121 -0.186386 -1.0803
0.0480737 -0.18486 -1.08042
0.0480424 -0.183864 -1.0805
0.0480112 -0.182868 -1.08058
0.0479799 -0.181872 -1.08067
0.0469646 -0.181406 -1.08071
0.0462279 -0.157957 -1.08216
0.0462142 -0.1575 -1.0827
0.0471982 -0.156971 -1.08274
0.0471669 -0.155975 -1.08282
0.0461341 -0.154969 -1.08241
0.0461516 -0.155508 -1.08287
0.0471072 -0.185929 -1.08083
0.0470759 -0.184933 -1.08092
0.0470621 -0.184477 -1.08146
0.0480461 -0.183947 -1.0815
0.0470134 -0.182941 -1.08108
0.0470308 -0.183481 -1.08154
0.0469821 -0.181945 -1.08117
0.0462004 -0.157044 -1.08324
0.0461691 -0.156048 -1.08332
0.0470483 -0.18402 -1.082
0.0471182 -0.186178 -1.08382
0.0471357 -0.186718 -1.08428
0.0481197 -0.186188 -1.08432
0.0480884 -0.185192 -1.0844
0.0470869 -0.185182 -1.08391
0.0480572 -0.184196 -1.08449
0.0470557 -0.184186 -1.08399
0.0470419 -0.183729 -1.08453
0.047247 -0.190245 -1.08449
0.0472645 -0.190785 -1.08495