<VTKFile type="UnstructuredGrid" version="0.1" byte_order="BigEndian">
  <UnstructuredGrid>
    <Piece NumberOfPoints="12966" NumberOfCells="25936">
      <PointData>
        <DataArray type="Float64" Name="position" NumberOfComponents="3" format="ascii">
0.0634988 -0.159453 -1.06219
0.0635171 -0.159989 -1.06265
0.0645004 -0.159458 -1.06268
0.0634844 -0.158993 -1.06272
0.0635355 -0.160526 -1.06311
0.0635539 -0.161062 -1.06357
0.0645372 -0.160531 -1.06361
0.0645044 -0.159534 -1.06368
0.06347 -0.158533 -1.06326
0.0644717 -0.158538 -1.06376
0.0634557 -0.158072 -1.0638
0.0635723 -0.161598 -1.06403
0.0635907 -0.162135 -1.06449
0.064574 -0.161604 -1.06453
0.0645412 -0.160607 -1.0646
0.0645084 -0.15961 -1.06468
0.0644757 -0.158614 -1.06475
0.0634597 -0.158149 -1.06479
0.064578 -0.16168 -1.06552
0.0635948 -0.162211 -1.06549
0.0645452 -0.160683 -1.0656
0.0645125 -0.159686 -1.06568
0.0644797 -0.15869 -1.06575
0.0634637 -0.158225 -1.06579
0.0636132 -0.162747 -1.06595
0.0636316 -0.163284 -1.06641
0.0646148 -0.162752 -1.06644
0.064582 -0.161756 -1.06652
0.0645493 -0.160759 -1.0666
0.0645165 -0.159763 -1.06667
0.0644838 -0.158766 -1.06675
0.0634678 -0.158301 -1.06679
0.0646188 -0.162828 -1.06744
0.0636356 -0.16336 -1.0674
0.0645861 -0.161832 -1.06752
0.0645533 -0.160835 -1.06759
0.0645206 -0.159839 -1.06767
0.0644878 -0.158842 -1.06775
0.0634718 -0.158377 -1.06779
0.0646229 -0.162904 -1.06844
0.0636396 -0.163436 -1.0684
0.0645901 -0.161908 -1.06851
0.0645573 -0.160911 -1.06859
0.0645246 -0.159915 -1.06867
0.0644918 -0.158918 -1.06874
0.0634758 -0.158453 -1.06878
0.0646269 -0.162981 -1.06944
0.0636437 -0.163512 -1.0694
0.0645941 -0.161984 -1.06951
0.0645614 -0.160987 -1.06959
0.0645286 -0.159991 -1.06966
0.0644959 -0.158994 -1.06974
0.0634799 -0.158529 -1.06978
0.0646309 -0.163057 -1.07043
0.0636477 -0.163588 -1.0704
0.0645982 -0.16206 -1.07051
0.0645654 -0.161064 -1.07059
0.0645327 -0.160067 -1.07066
0.0644999 -0.15907 -1.07074
0.0634839 -0.158605 -1.07078
0.064635 -0.163133 -1.07143
0.0636517 -0.163664 -1.07139
0.0646022 -0.162136 -1.07151
0.0645694 -0.16114 -1.07158
0.0645367 -0.160143 -1.07166
0.0635023 -0.159141 -1.07124
0.0635207 -0.159678 -1.0717
0.0636374 -0.163204 -1.07193
0.063623 -0.162743 -1.07247
0.0646062 -0.162212 -1.0725
0.0645735 -0.161216 -1.07258
0.0635391 -0.160214 -1.07216
0.0635575 -0.16075 -1.07262
0.0636087 -0.162283 -1.073
0.0635759 -0.161287 -1.07308
0.0615651 -0.161512 -1.06204
0.0615835 -0.162049 -1.0625
0.0625667 -0.161517 -1.06254
0.0625339 -0.160521 -1.06261
0.0615323 -0.160516 -1.06211
0.0614995 -0.159519 -1.06219
0.0624684 -0.158528 -1.06276
0.0614668 -0.158523 -1.06227
0.0614524 -0.158062 -1.0628
0.0625707 -0.161593 -1.06353
0.0615875 -0.162125 -1.0635
0.0624397 -0.157607 -1.06384
0.0614381 -0.157602 -1.06334
0.0614237 -0.157142 -1.06388
0.0615915 -0.162201 -1.06449
0.0624437 -0.157683 -1.06483
0.0614277 -0.157218 -1.06487
0.0616099 -0.162737 -1.06495
0.0616283 -0.163273 -1.06541
0.0626115 -0.162742 -1.06545
0.0624478 -0.157759 -1.06583
0.0614318 -0.157294 -1.06587
0.0616324 -0.163349 -1.06641
0.0624518 -0.157835 -1.06683
0.0614358 -0.15737 -1.06687
0.0616508 -0.163886 -1.06687
0.0616691 -0.164422 -1.06733
0.0626524 -0.163891 -1.06737
0.0624558 -0.157912 -1.06783
0.0614398 -0.157446 -1.06787
0.0626564 -0.163967 -1.06837
0.0616732 -0.164498 -1.06833
0.0624599 -0.157988 -1.06882
0.0614439 -0.157522 -1.06886
0.0616916 -0.165035 -1.06879
0.06171 -0.165571 -1.06925
0.0626932 -0.16504 -1.06929
0.0626604 -0.164043 -1.06936
0.0614807 -0.158595 -1.06978
0.0614623 -0.158059 -1.06932
0.0626972 -0.165116 -1.07028
0.061714 -0.165647 -1.07025
0.0626645 -0.164119 -1.07036
0.0614847 -0.158671 -1.07078
0.0627013 -0.165192 -1.07128
0.061718 -0.165723 -1.07124
0.0626685 -0.164195 -1.07136
0.0625047 -0.159212 -1.07174
0.0614887 -0.158747 -1.07178
0.0627053 -0.165268 -1.07228
0.0617221 -0.165799 -1.07224
0.0626725 -0.164271 -1.07235
0.0626398 -0.163275 -1.07243
0.0625415 -0.160285 -1.07266
0.0625088 -0.159289 -1.07273
0.0614928 -0.158823 -1.07277
0.0617077 -0.165339 -1.07278
0.0616934 -0.164879 -1.07331
0.0626766 -0.164347 -1.07335
0.0626438 -0.163351 -1.07343
0.0626111 -0.162354 -1.0735
0.0625783 -0.161358 -1.07358
0.0625456 -0.160361 -1.07366
0.0615112 -0.15936 -1.07323
0.0615296 -0.159896 -1.0737
0.061679 -0.164418 -1.07385
0.0616646 -0.163958 -1.07439
0.0626479 -0.163427 -1.07442
0.0626151 -0.16243 -1.0745
0.0615807 -0.161429 -1.07408
0.0615991 -0.161965 -1.07454
0.061548 -0.160432 -1.07416
0.0616503 -0.163498 -1.07492
0.0616175 -0.162501 -1.075
0.0595291 -0.160506 -1.06112
0.0595475 -0.161042 -1.06158
0.0605307 -0.160511 -1.06162
0.0604979 -0.159514 -1.06169
0.0594963 -0.159509 -1.0612
0.0604652 -0.158517 -1.06177
0.0594635 -0.158512 -1.06127
0.0594492 -0.158052 -1.06181
0.0595659 -0.161578 -1.06204
0.0595843 -0.162114 -1.0625
0.0604364 -0.157597 -1.06284
0.0594348 -0.157592 -1.06235
0.0594205 -0.157132 -1.06288
0.0595883 -0.162191 -1.0635
0.0594245 -0.157208 -1.06388
0.0596067 -0.162727 -1.06396
0.0596251 -0.163263 -1.06442
0.0606083 -0.162732 -1.06446
0.0604118 -0.156753 -1.06491
0.0594101 -0.156748 -1.06442
0.0593958 -0.156287 -1.06495
0.0596291 -0.163339 -1.06542
0.0604158 -0.156829 -1.06591
0.0593998 -0.156363 -1.06595
0.0596331 -0.163415 -1.06641
0.0604198 -0.156905 -1.06691
0.0594039 -0.15644 -1.06695
0.0596515 -0.163952 -1.06687
0.0596699 -0.164488 -1.06733
0.0604239 -0.156981 -1.0679
0.0594079 -0.156516 -1.06794
0.0596883 -0.165024 -1.0678
0.0597067 -0.165561 -1.06826
0.06069 -0.165029 -1.06829
0.0604279 -0.157057 -1.0689
0.0594119 -0.156592 -1.06894
0.0597108 -0.165637 -1.06925
0.0604647 -0.15813 -1.06982
0.0594487 -0.157664 -1.06986
0.0594303 -0.157128 -1.0694
0.0597148 -0.165713 -1.07025
0.0604687 -0.158206 -1.07082
0.0594527 -0.15774 -1.07086
0.0597332 -0.166249 -1.07071
0.0597516 -0.166786 -1.07117
0.0607348 -0.166254 -1.07121
0.0604728 -0.158282 -1.07182
0.0594568 -0.157817 -1.07186
0.0607389 -0.16633 -1.0722
0.0597556 -0.166862 -1.07217
0.0594936 -0.158889 -1.07278
0.0594752 -0.158353 -1.07232
0.0607429 -0.166406 -1.0732
0.0597597 -0.166938 -1.07317
0.0607101 -0.16541 -1.07328
0.0595304 -0.159962 -1.0737
0.059512 -0.159425 -1.07324
0.0597453 -0.166477 -1.0737
0.0597309 -0.166017 -1.07424
0.0607142 -0.165486 -1.07427
0.0606814 -0.164489 -1.07435
0.0605831 -0.1615 -1.07458
0.0595672 -0.161034 -1.07462
0.0595488 -0.160498 -1.07416
0.0607182 -0.165562 -1.07527
0.059735 -0.166093 -1.07524
0.0606854 -0.164566 -1.07535
0.0606527 -0.163569 -1.07542
0.0606199 -0.162572 -1.0755
0.059604 -0.162107 -1.07554
0.0595856 -0.161571 -1.07508
0.0597206 -0.165633 -1.07577
0.0597063 -0.165173 -1.07631
0.0606895 -0.164642 -1.07635
0.0596551 -0.16364 -1.07592
0.0596735 -0.164176 -1.07638
0.0596224 -0.162643 -1.076
0.0596919 -0.164713 -1.07685
0.0575299 -0.160571 -1.06112
0.0575483 -0.161108 -1.06158
0.0574971 -0.159575 -1.0612
0.0574643 -0.158578 -1.06128
0.05745 -0.158118 -1.06181
0.0575666 -0.161644 -1.06204
0.057585 -0.16218 -1.0625
0.0574356 -0.157658 -1.06235
0.0574213 -0.157198 -1.06289
0.0576034 -0.162717 -1.06297
0.0576218 -0.163253 -1.06343
0.0586051 -0.162722 -1.06346
0.0584085 -0.156742 -1.06392
0.0574069 -0.156737 -1.06342
0.0573925 -0.156277 -1.06396
0.0576259 -0.163329 -1.06442
0.0573966 -0.156353 -1.06496
0.0576443 -0.163865 -1.06488
0.0576627 -0.164402 -1.06534
0.0586459 -0.163871 -1.06538
0.0583838 -0.155898 -1.06599
0.0573822 -0.155893 -1.06549
0.0573679 -0.155433 -1.06603
0.0586499 -0.163947 -1.06638
0.0576667 -0.164478 -1.06634
0.0583879 -0.155974 -1.06699
0.0573719 -0.155509 -1.06703
0.0576851 -0.165014 -1.0668
0.0577035 -0.165551 -1.06726
0.0586867 -0.165019 -1.0673
0.0583919 -0.15605 -1.06798
0.0573759 -0.155585 -1.06802
0.0577075 -0.165627 -1.06826
0.0574127 -0.156658 -1.06894
0.0573943 -0.156121 -1.06848
0.0577259 -0.166163 -1.06872
0.0577443 -0.166699 -1.06918
0.0587275 -0.166168 -1.06922
0.0584327 -0.157199 -1.0699
0.0574168 -0.156734 -1.06994
0.0587316 -0.166244 -1.07021
0.0577484 -0.166775 -1.07018
0.0584368 -0.157275 -1.0709
0.0574208 -0.15681 -1.07094
0.0577524 -0.166851 -1.07117
0.0574576 -0.157882 -1.07186
0.0574392 -0.157346 -1.0714
0.0577564 -0.166928 -1.07217
0.0574944 -0.158955 -1.07278
0.057476 -0.158419 -1.07232
0.0577605 -0.167004 -1.07317
0.0585144 -0.159497 -1.07374
0.0574984 -0.159031 -1.07378
0.0587477 -0.166548 -1.0742
0.0577645 -0.16708 -1.07417
0.0585512 -0.160569 -1.07466
0.0575352 -0.160104 -1.0747
0.0575168 -0.159568 -1.07424
0.0587518 -0.166625 -1.0752
0.0577685 -0.167156 -1.07516
0.058588 -0.161642 -1.07558
0.057572 -0.161177 -1.07562
0.0575536 -0.16064 -1.07516
0.0587558 -0.166701 -1.0762
0.0577726 -0.167232 -1.07616
0.058723 -0.165704 -1.07627
0.0586575 -0.163711 -1.07642
0.0576415 -0.163246 -1.07646
0.0576231 -0.162709 -1.076
0.0575904 -0.161713 -1.07608
0.0577582 -0.166772 -1.0767
0.0577438 -0.166311 -1.07723
0.0587271 -0.16578 -1.07727
0.0586943 -0.164784 -1.07735
0.0576783 -0.164318 -1.07739
0.0576599 -0.163782 -1.07692
0.0577295 -0.165851 -1.07777
0.0576967 -0.164855 -1.07785
0.0555306 -0.160637 -1.06113
0.055549 -0.161174 -1.06159
0.0554979 -0.159641 -1.0612
0.0554835 -0.159181 -1.06174
0.0564668 -0.158649 -1.06178
0.0555674 -0.16171 -1.06205
0.0555858 -0.162246 -1.06251
0.0554692 -0.15872 -1.06228
0.0554364 -0.157724 -1.06235
0.0554221 -0.157264 -1.06289
0.0556042 -0.162783 -1.06297
0.0556226 -0.163319 -1.06343
0.0554077 -0.156803 -1.06343
0.0553933 -0.156343 -1.06396
0.0556267 -0.163395 -1.06443
0.0553974 -0.156419 -1.06496
0.0556451 -0.163931 -1.06489
0.0556635 -0.164468 -1.06535
0.055383 -0.155959 -1.0655
0.0553686 -0.155499 -1.06603
0.0556675 -0.164544 -1.06634
0.0553727 -0.155575 -1.06703
0.0556859 -0.16508 -1.0668
0.0557043 -0.165617 -1.06726
0.0553767 -0.155651 -1.06803
0.0557227 -0.166153 -1.06773
0.0557411 -0.166689 -1.06819
0.0567243 -0.166158 -1.06822
0.0563967 -0.156192 -1.06898
0.0553808 -0.155727 -1.06902
0.0557451 -0.166765 -1.06918
0.0564008 -0.156268 -1.06998
0.0553848 -0.155803 -1.07002
0.0557635 -0.167302 -1.06964
0.0557819 -0.167838 -1.0701
0.0567651 -0.167307 -1.07014
0.0554216 -0.156876 -1.07094
0.0554032 -0.156339 -1.07048
0.0567692 -0.167383 -1.07114
0.0557859 -0.167914 -1.0711
0.0564416 -0.157417 -1.0719
0.0554256 -0.156952 -1.07194
0.0567732 -0.167459 -1.07213
0.05579 -0.16799 -1.0721
0.0564784 -0.15849 -1.07282
0.0554624 -0.158025 -1.07286
0.055444 -0.157488 -1.0724
0.0567772 -0.167535 -1.07313
0.055794 -0.168066 -1.07309
0.0554992 -0.159097 -1.07378
0.0554808 -0.158561 -1.07332
0.0567813 -0.167611 -1.07413
0.055798 -0.168142 -1.07409
0.055536 -0.16017 -1.0747
0.0555176 -0.159633 -1.07424
0.0567853 -0.167687 -1.07513
0.0558021 -0.168218 -1.07509
0.0555728 -0.161242 -1.07562
0.0555544 -0.160706 -1.07516
0.0567893 -0.167763 -1.07612
0.0558061 -0.168294 -1.07609
0.0566256 -0.16278 -1.0765
0.0556096 -0.162315 -1.07654
0.0555912 -0.161779 -1.07608
0.0567934 -0.167839 -1.07712
0.0558102 -0.168371 -1.07708
0.0567606 -0.166843 -1.0772
0.0566624 -0.163853 -1.07742
0.0556464 -0.163388 -1.07746
0.055628 -0.162851 -1.077
0.0557958 -0.16791 -1.07762
0.0557814 -0.16745 -1.07816
0.0567647 -0.166919 -1.07819
0.0567319 -0.165922 -1.07827
0.0557159 -0.165457 -1.07831
0.0556975 -0.164921 -1.07785
0.0556648 -0.163924 -1.07792
0.0557671 -0.16699 -1.07869
0.0557343 -0.165993 -1.07877
0.0545331 -0.160708 -1.06163
0.0545003 -0.159712 -1.0617
0.0535682 -0.161776 -1.06205
0.0535866 -0.162312 -1.06251
0.0535355 -0.160779 -1.06213
0.0535027 -0.159783 -1.0622
0.05347 -0.158786 -1.06228
0.0534372 -0.15779 -1.06236
0.0534228 -0.15733 -1.06289
0.053605 -0.162849 -1.06297
0.0536234 -0.163385 -1.06343
0.0534085 -0.156869 -1.06343
0.0533941 -0.156409 -1.06397
0.0536275 -0.163461 -1.06443
0.0543814 -0.155954 -1.065
0.0533798 -0.155949 -1.0645
0.0533654 -0.155489 -1.06504
0.0536459 -0.163997 -1.06489
0.0536643 -0.164534 -1.06535
0.0533694 -0.155565 -1.06604
0.0536826 -0.16507 -1.06581
0.053701 -0.165606 -1.06627
0.0546843 -0.165075 -1.06631
0.0543567 -0.15511 -1.06707
0.0533551 -0.155104 -1.06657
0.0533407 -0.154644 -1.06711
0.0537051 -0.165682 -1.06727
0.0543607 -0.155186 -1.06807
0.0533448 -0.15472 -1.06811
0.0537235 -0.166219 -1.06773
0.0537419 -0.166755 -1.06819
0.0543648 -0.155262 -1.06906
0.0533488 -0.154796 -1.0691
0.0537603 -0.167291 -1.06865
0.0537787 -0.167828 -1.06911
0.0547619 -0.167296 -1.06915
0.0533856 -0.155869 -1.07002
0.0533672 -0.155333 -1.06956
0.0537827 -0.167904 -1.07011
0.0544056 -0.15641 -1.07098
0.0533896 -0.155945 -1.07102
0.0538011 -0.16844 -1.07057
0.0538195 -0.168976 -1.07103
0.0548027 -0.168445 -1.07106
0.0534264 -0.157018 -1.07194
0.053408 -0.156481 -1.07148
0.0548068 -0.168521 -1.07206
0.0538235 -0.169053 -1.07202
0.0544464 -0.157559 -1.0729
0.0534304 -0.157094 -1.07294
0.0548108 -0.168597 -1.07306
0.0538276 -0.169129 -1.07302
0.0544832 -0.158632 -1.07382
0.0534672 -0.158167 -1.07386
0.0534488 -0.15763 -1.0734
0.0548148 -0.168674 -1.07406
0.0538316 -0.169205 -1.07402
0.05452 -0.159705 -1.07474
0.053504 -0.159239 -1.07478
0.0534856 -0.158703 -1.07432
0.0548189 -0.16875 -1.07505
0.0538356 -0.169281 -1.07502
0.0535736 -0.161308 -1.07563
0.0535552 -0.160772 -1.07517
0.0535224 -0.159776 -1.07524
0.0548229 -0.168826 -1.07605
0.0538397 -0.169357 -1.07601
0.0536104 -0.162381 -1.07655
0.053592 -0.161845 -1.07609
0.0548269 -0.168902 -1.07705
0.0538437 -0.169433 -1.07701
0.0536799 -0.16445 -1.07739
0.0536615 -0.163914 -1.07693
0.0546631 -0.163919 -1.07743
0.0536288 -0.162917 -1.07701
0.054831 -0.168978 -1.07804
0.0538477 -0.169509 -1.07801
0.0547982 -0.167981 -1.07812
0.0537167 -0.165523 -1.07831
0.0536983 -0.164987 -1.07785
0.0538334 -0.169049 -1.07854
0.053819 -0.168589 -1.07908
0.0548022 -0.168057 -1.07912
0.0537679 -0.167056 -1.0787
0.0537863 -0.167592 -1.07916
0.0537351 -0.166059 -1.07877
0.0538047 -0.168128 -1.07962
0.051569 -0.161842 -1.06205
0.0515874 -0.162378 -1.06251
0.0515363 -0.160845 -1.06213
0.0515035 -0.159849 -1.06221
0.0514708 -0.158852 -1.06228
0.051438 -0.157856 -1.06236
0.0514236 -0.157395 -1.06289
0.0516058 -0.162915 -1.06297
0.0516242 -0.163451 -1.06343
0.0514093 -0.156935 -1.06343
0.0513949 -0.156475 -1.06397
0.0516426 -0.163987 -1.0639
0.051661 -0.164524 -1.06436
0.0526442 -0.163992 -1.06439
0.0513806 -0.156015 -1.0645
0.0513662 -0.155555 -1.06504
0.0516794 -0.16506 -1.06482
0.0516978 -0.165596 -1.06528
0.052681 -0.165065 -1.06531
0.0523535 -0.155099 -1.06608
0.0513518 -0.155094 -1.06558
0.0513375 -0.154634 -1.06611
0.0517162 -0.166133 -1.06574
0.0517346 -0.166669 -1.0662
0.0527178 -0.166138 -1.06623
0.0513415 -0.15471 -1.06711
0.0527219 -0.166214 -1.06723
0.0517386 -0.166745 -1.06719
0.0513455 -0.154786 -1.06811
0.051757 -0.167281 -1.06766
0.0517754 -0.167818 -1.06812
0.0527586 -0.167286 -1.06815
0.0513496 -0.154862 -1.06911
0.0517938 -0.168354 -1.06858
0.0518122 -0.16889 -1.06904
0.0527954 -0.168359 -1.06907
0.0513864 -0.155935 -1.07003
0.051368 -0.155399 -1.06957
0.0518306 -0.169427 -1.0695
0.051849 -0.169963 -1.06996
0.0528322 -0.169432 -1.06999
0.0527995 -0.168435 -1.07007
0.0513904 -0.156011 -1.07102
0.0528363 -0.169508 -1.07099
0.051853 -0.170039 -1.07095
0.0524104 -0.156553 -1.07198
0.0513944 -0.156087 -1.07202
0.0528403 -0.169584 -1.07199
0.0518571 -0.170115 -1.07195
0.0514312 -0.15716 -1.07294
0.0514128 -0.156624 -1.07248
0.0518755 -0.170651 -1.07241
0.0518939 -0.171188 -1.07287
0.0528771 -0.170656 -1.07291
0.0528443 -0.16966 -1.07299
0.051468 -0.158232 -1.07386
0.0514496 -0.157696 -1.0734
0.0528811 -0.170733 -1.07391
0.0518979 -0.171264 -1.07387
0.0528484 -0.169736 -1.07398
0.0515048 -0.159305 -1.07478
0.0514864 -0.158769 -1.07432
0.0528852 -0.170809 -1.0749
0.0519019 -0.17134 -1.07487
0.0528524 -0.169812 -1.07498
0.0515744 -0.161374 -1.07563
0.051556 -0.160838 -1.07517
0.0515232 -0.159841 -1.07524
0.0528892 -0.170885 -1.0759
0.051906 -0.171416 -1.07586
0.0528564 -0.169888 -1.07598
0.0516439 -0.163444 -1.07647
0.0516255 -0.162907 -1.07601
0.0526271 -0.162912 -1.07651
0.0515928 -0.161911 -1.07609
0.0528932 -0.170961 -1.0769
0.05191 -0.171492 -1.07686
0.0528605 -0.169964 -1.07697
0.0516807 -0.164516 -1.07739
0.0516623 -0.16398 -1.07693
0.0528973 -0.171037 -1.07789
0.051914 -0.171568 -1.07786
0.0528645 -0.17004 -1.07797
0.0517175 -0.165589 -1.07832
0.0516991 -0.165053 -1.07785
0.0518997 -0.171108 -1.07839
0.0518853 -0.170648 -1.07893
0.0528685 -0.170116 -1.07897
0.0528358 -0.16912 -1.07904
0.0527703 -0.167127 -1.0792
0.0517543 -0.166661 -1.07924
0.0517359 -0.166125 -1.07878
0.051871 -0.170187 -1.07947
0.0518382 -0.169191 -1.07954
0.0518055 -0.168194 -1.07962
0.0517727 -0.167198 -1.0797
0.0521325 -0.177772 -1.08691
0.0521509 -0.178308 -1.08737
0.0531342 -0.177777 -1.08741
0.0531014 -0.176781 -1.08748
0.0520998 -0.176776 -1.08699
0.0530687 -0.175784 -1.08756
0.052067 -0.175779 -1.08706
0.0530359 -0.174788 -1.08764
0.0520343 -0.174782 -1.08714
0.0520199 -0.174322 -1.08768
0.0521693 -0.178845 -1.08783
0.0521877 -0.179381 -1.08829
0.053171 -0.17885 -1.08833
0.0531382 -0.177853 -1.08841
0.0531054 -0.176857 -1.08848
0.0530727 -0.17586 -1.08856
0.0530399 -0.174864 -1.08863
0.0520239 -0.174398 -1.08867
0.0522061 -0.179917 -1.08875
0.0522245 -0.180454 -1.08921
0.0532078 -0.179922 -1.08925
0.053175 -0.178926 -1.08933
0.0531422 -0.177929 -1.0894
0.0531095 -0.176933 -1.08948
0.0520751 -0.175931 -1.08906
0.0520935 -0.176467 -1.08952
0.0520423 -0.174935 -1.08913
0.0532118 -0.179999 -1.09025
0.0522286 -0.18053 -1.09021
0.053179 -0.179002 -1.09032
0.0531463 -0.178005 -1.0904
0.0521119 -0.177004 -1.08998
0.0521303 -0.17754 -1.09044
0.0522142 -0.18007 -1.09075
0.0521814 -0.179073 -1.09082
0.0521487 -0.178076 -1.0909
0.0495698 -0.161908 -1.06206
0.0495882 -0.162444 -1.06252
0.0495371 -0.160911 -1.06213
0.0495043 -0.159915 -1.06221
0.0494716 -0.158918 -1.06229
0.0494388 -0.157922 -1.06236
0.0504077 -0.15693 -1.06293
0.049406 -0.156925 -1.06244
0.0493917 -0.156465 -1.06297
0.0496394 -0.163977 -1.0629
0.0496578 -0.164513 -1.06336
0.050641 -0.163982 -1.0634
0.0496066 -0.162981 -1.06298
0.0503789 -0.15601 -1.06401
0.0493773 -0.156005 -1.06351
0.049363 -0.155544 -1.06405
0.0496762 -0.16505 -1.06382
0.0496946 -0.165586 -1.06428
0.0506778 -0.165055 -1.06432
0.0503502 -0.155089 -1.06508
0.0493486 -0.155084 -1.06458
0.0493342 -0.154624 -1.06512
0.049713 -0.166122 -1.06474
0.0497314 -0.166659 -1.0652
0.0507146 -0.166127 -1.06524
0.0503215 -0.154169 -1.06615
0.0493199 -0.154164 -1.06566
0.0493055 -0.153703 -1.06619
0.0497497 -0.167195 -1.06566
0.0497681 -0.167731 -1.06612
0.0507514 -0.1672 -1.06616
0.0503255 -0.154245 -1.06715
0.0493095 -0.15378 -1.06719
0.0497865 -0.168268 -1.06658
0.0498049 -0.168804 -1.06705
0.0507882 -0.168273 -1.06708
0.0507554 -0.167276 -1.06716
0.0493463 -0.154852 -1.06811
0.0493279 -0.154316 -1.06765
0.0498233 -0.16934 -1.06751
0.0498417 -0.169877 -1.06797
0.050825 -0.169345 -1.068
0.0507922 -0.168349 -1.06808
0.0493504 -0.154928 -1.06911
0.0498601 -0.170413 -1.06843
0.0498785 -0.170949 -1.06889
0.0508617 -0.170418 -1.06892
0.050829 -0.169421 -1.069
0.0503704 -0.15547 -1.07007
0.0493544 -0.155004 -1.07011
0.0498969 -0.171486 -1.06935
0.0499153 -0.172022 -1.06981
0.0508985 -0.171491 -1.06984
0.0508658 -0.170494 -1.06992
0.0493912 -0.156077 -1.07103
0.0493728 -0.155541 -1.07057
0.0509026 -0.171567 -1.07084
0.0499193 -0.172098 -1.07081
0.0508698 -0.17057 -1.07092
0.0493952 -0.156153 -1.07202
0.0509066 -0.171643 -1.07184
0.0499234 -0.172174 -1.0718
0.0508739 -0.170646 -1.07192
0.049432 -0.157226 -1.07295
0.0494136 -0.156689 -1.07248
0.0499418 -0.17271 -1.07226
0.0499602 -0.173247 -1.07272
0.0509434 -0.172716 -1.07276
0.0509106 -0.171719 -1.07284
0.0494688 -0.158298 -1.07387
0.0494504 -0.157762 -1.07341
0.0509474 -0.172792 -1.07376
0.0499642 -0.173323 -1.07372
0.0509147 -0.171795 -1.07383
0.0495384 -0.160368 -1.07471
0.04952 -0.159831 -1.07425
0.0505216 -0.159836 -1.07475
0.0494872 -0.158835 -1.07433
0.0509515 -0.172868 -1.07475
0.0499682 -0.173399 -1.07472
0.0509187 -0.171871 -1.07483
0.0495752 -0.16144 -1.07563
0.0495568 -0.160904 -1.07517
0.0509555 -0.172944 -1.07575
0.0499723 -0.173475 -1.07571
0.0509228 -0.171947 -1.07583
0.0496447 -0.163509 -1.07648
0.0496263 -0.162973 -1.07602
0.0495936 -0.161977 -1.07609
0.0509595 -0.17302 -1.07675
0.0499763 -0.173551 -1.07671
0.0509268 -0.172023 -1.07682
0.0496815 -0.164582 -1.0774
0.0496631 -0.164046 -1.07694
0.049962 -0.173091 -1.07725
0.0499476 -0.172631 -1.07778
0.0509308 -0.172099 -1.07782
0.0497183 -0.165655 -1.07832
0.0496999 -0.165118 -1.07786
0.0509349 -0.172176 -1.07882
0.0499516 -0.172707 -1.07878
0.0509021 -0.171179 -1.07889
0.0497878 -0.167724 -1.07916
0.0497695 -0.167188 -1.0787
0.0507711 -0.167193 -1.0792
0.0497367 -0.166191 -1.07878
0.0499373 -0.172247 -1.07932
0.0499229 -0.171786 -1.07986
0.0509061 -0.171255 -1.07989
0.0508734 -0.170259 -1.07997
0.0508406 -0.169262 -1.08004
0.0498246 -0.168797 -1.08008
0.0498062 -0.16826 -1.07962
0.0499085 -0.171326 -1.08039
0.0498758 -0.17033 -1.08047
0.049843 -0.169333 -1.08054
0.0500965 -0.176765 -1.08599
0.0501149 -0.177302 -1.08645
0.0510982 -0.17677 -1.08649
0.0510654 -0.175774 -1.08657
0.0500638 -0.175769 -1.08607
0.0510327 -0.174777 -1.08664
0.050031 -0.174772 -1.08615
0.0509999 -0.173781 -1.08672
0.0499983 -0.173776 -1.08622
0.0509671 -0.172784 -1.0868
0.0499655 -0.172779 -1.0863
0.0509344 -0.171788 -1.08687
0.0499328 -0.171783 -1.08637
0.0509016 -0.170791 -1.08695
0.0499 -0.170786 -1.08645
0.0498856 -0.170326 -1.08699
0.0501989 -0.179831 -1.08676
0.0502172 -0.180367 -1.08722
0.0512005 -0.179836 -1.08726
0.0511677 -0.17884 -1.08734
0.0501661 -0.178835 -1.08684
0.0501333 -0.177838 -1.08691
0.0510039 -0.173857 -1.08772
0.0509712 -0.17286 -1.08779
0.0509384 -0.171864 -1.08787
0.049904 -0.170862 -1.08745
0.0499224 -0.171398 -1.08791
0.0502356 -0.180904 -1.08768
0.050254 -0.18144 -1.08814
0.0512373 -0.180909 -1.08818
0.0512045 -0.179912 -1.08826
0.051008 -0.173933 -1.08871
0.0509752 -0.172936 -1.08879
0.0499408 -0.171935 -1.08837
0.0499592 -0.172471 -1.08883
0.0502724 -0.181976 -1.0886
0.0502908 -0.182513 -1.08906
0.0512741 -0.181982 -1.0891
0.0512413 -0.180985 -1.08918
0.0510775 -0.176002 -1.08956
0.0510448 -0.175006 -1.08963
0.0500288 -0.17454 -1.08967
0.0500104 -0.174004 -1.08921
0.0499776 -0.173007 -1.08929
0.0503092 -0.183049 -1.08952
0.0503276 -0.183585 -1.08999
0.0513109 -0.183054 -1.09002
0.0512781 -0.182058 -1.0901
0.0512453 -0.181061 -1.09017
0.0511143 -0.177075 -1.09048
0.0500983 -0.17661 -1.09052
0.0500799 -0.176073 -1.09006
0.0500472 -0.175077 -1.09013
0.0513149 -0.18313 -1.09102
0.0503317 -0.183662 -1.09098
0.0512821 -0.182134 -1.0911
0.0512494 -0.181137 -1.09117
0.0512166 -0.180141 -1.09125
0.0502006 -0.179675 -1.09129
0.0501822 -0.179139 -1.09083
0.0501495 -0.178142 -1.0909
0.0501167 -0.177146 -1.09098
0.0503173 -0.183201 -1.09152
0.0503029 -0.182741 -1.09206
0.0512862 -0.18221 -1.09209
0.0502518 -0.181208 -1.09167
0.0502702 -0.181744 -1.09213
0.050219 -0.180212 -1.09175
0.0502886 -0.182281 -1.09259
0.0475338 -0.160901 -1.06114
0.0475522 -0.161438 -1.0616
0.0485354 -0.160906 -1.06164
0.0485027 -0.15991 -1.06171
0.0475011 -0.159905 -1.06121
0.0484699 -0.158913 -1.06179
0.0474683 -0.158908 -1.06129
0.0484372 -0.157917 -1.06186
0.0474356 -0.157912 -1.06137
0.0484044 -0.15692 -1.06194
0.0474028 -0.156915 -1.06144
0.0483717 -0.155923 -1.06202
0.04737 -0.155918 -1.06152
0.0473557 -0.155458 -1.06206
0.0476034 -0.16297 -1.06198
0.0476218 -0.163507 -1.06244
0.048605 -0.162975 -1.06248
0.0475706 -0.161974 -1.06206
0.0483757 -0.156 -1.06301
0.0473413 -0.154998 -1.06259
0.0483429 -0.155003 -1.06309
0.047327 -0.154538 -1.06313
0.0476402 -0.164043 -1.0629
0.0476586 -0.164579 -1.06336
0.048347 -0.155079 -1.06409
0.0473126 -0.154077 -1.06367
0.0483142 -0.154083 -1.06416
0.0472982 -0.153617 -1.0642
0.0477097 -0.166112 -1.06375
0.0477281 -0.166649 -1.06421
0.0487113 -0.166117 -1.06425
0.047677 -0.165116 -1.06383
0.0483183 -0.154159 -1.06516
0.0472839 -0.153157 -1.06474
0.0482855 -0.153162 -1.06524
0.0472695 -0.152697 -1.06528
0.0477465 -0.167185 -1.06467
0.0477649 -0.167721 -1.06513
0.0487481 -0.16719 -1.06517
0.0482895 -0.153238 -1.06623
0.0472735 -0.152773 -1.06627
0.0478161 -0.169254 -1.06551
0.0478345 -0.16979 -1.06598
0.0488177 -0.169259 -1.06601
0.0487849 -0.168263 -1.06609
0.0477833 -0.168258 -1.06559
0.0482936 -0.153314 -1.06723
0.0472776 -0.152849 -1.06727
0.0478856 -0.171323 -1.06636
0.047904 -0.17186 -1.06682
0.0488872 -0.171328 -1.06686
0.0488545 -0.170332 -1.06693
0.0478528 -0.170327 -1.06644
0.0488217 -0.169335 -1.06701
0.0483304 -0.154387 -1.06815
0.0473144 -0.153922 -1.06819
0.047296 -0.153385 -1.06773
0.0480534 -0.176382 -1.06698
0.0480718 -0.176918 -1.06744
0.049055 -0.176387 -1.06747
0.0490223 -0.175391 -1.06755
0.0480207 -0.175386 -1.06705
0.0489895 -0.174394 -1.06763
0.0479879 -0.174389 -1.06713
0.0489568 -0.173398 -1.0677
0.0479552 -0.173393 -1.0672
0.048924 -0.172401 -1.06778
0.0479224 -0.172396 -1.06728
0.0488913 -0.171404 -1.06785
0.0488585 -0.170408 -1.06793
0.0483344 -0.154463 -1.06915
0.0473184 -0.153998 -1.06919
0.048123 -0.178451 -1.06782
0.0481414 -0.178988 -1.06828
0.0491246 -0.178456 -1.06832
0.0490918 -0.17746 -1.06839
0.0480902 -0.177455 -1.0679
0.0490591 -0.176463 -1.06847
0.0490263 -0.175467 -1.06855
0.0489936 -0.17447 -1.06862
0.0489608 -0.173474 -1.0687
0.0489281 -0.172477 -1.06877
0.0488953 -0.171481 -1.06885
0.0473552 -0.15507 -1.07011
0.0473368 -0.154534 -1.06965
0.0481598 -0.179524 -1.06874
0.0481782 -0.18006 -1.0692
0.0491614 -0.179529 -1.06924
0.0491286 -0.178533 -1.06931
0.0490959 -0.177536 -1.06939
0.0490631 -0.176539 -1.06947
0.0490304 -0.175543 -1.06954
0.0489976 -0.174546 -1.06962
0.0489648 -0.17355 -1.0697
0.0489321 -0.172553 -1.06977
0.047392 -0.156143 -1.07103
0.0473736 -0.155607 -1.07057
0.0481638 -0.1796 -1.06974
0.048131 -0.178604 -1.06981
0.0480983 -0.177607 -1.06989
0.0480839 -0.177147 -1.07043
0.0490672 -0.176616 -1.07046
0.0490344 -0.175619 -1.07054
0.0490016 -0.174622 -1.07062
0.0489689 -0.173626 -1.07069
0.0489361 -0.172629 -1.07077
0.047396 -0.156219 -1.07203
0.0480696 -0.176687 -1.07096
0.0480552 -0.176226 -1.0715
0.0490384 -0.175695 -1.07154
0.0490057 -0.174698 -1.07161
0.0489729 -0.173702 -1.07169
0.0489402 -0.172705 -1.07177
0.0474328 -0.157292 -1.07295
0.0474144 -0.156755 -1.07249
0.0490425 -0.175771 -1.07253
0.0480592 -0.176302 -1.0725
0.0490097 -0.174775 -1.07261
0.048977 -0.173778 -1.07269
0.0474696 -0.158364 -1.07387
0.0474512 -0.157828 -1.07341
0.0480449 -0.175842 -1.07303
0.0480305 -0.175382 -1.07357
0.0490137 -0.174851 -1.07361
0.048981 -0.173854 -1.07368
0.0475392 -0.160434 -1.07471
0.0475208 -0.159897 -1.07425
0.047488 -0.158901 -1.07433
0.0470949 -0.146942 -1.07524
0.0471133 -0.147478 -1.0757
0.0480966 -0.146947 -1.07574
0.0480638 -0.145951 -1.07582
0.0470622 -0.145945 -1.07532
0.0470478 -0.145485 -1.07586
0.0490178 -0.174927 -1.0746
0.0480346 -0.175458 -1.07457
0.048985 -0.17393 -1.07468
0.047576 -0.161506 -1.07563
0.0475576 -0.16097 -1.07517
0.0471317 -0.148015 -1.07616
0.0471501 -0.148551 -1.07663
0.0481333 -0.14802 -1.07666
0.0481006 -0.147023 -1.07674
0.0480678 -0.146027 -1.07681
0.0470334 -0.145025 -1.07639
0.0480351 -0.14503 -1.07689
0.0470191 -0.144565 -1.07693
0.0490218 -0.175003 -1.0756
0.0480386 -0.175534 -1.07557
0.0489891 -0.174006 -1.07568
0.0476455 -0.163575 -1.07648
0.0476271 -0.163039 -1.07602
0.0475944 -0.162043 -1.0761
0.0471358 -0.148091 -1.07716
0.0471214 -0.147631 -1.0777
0.0481046 -0.147099 -1.07773
0.0480719 -0.146103 -1.07781
0.0480391 -0.145106 -1.07789
0.0470047 -0.144105 -1.07747
0.0480063 -0.14411 -1.07796
0.0469904 -0.143644 -1.078
0.0490259 -0.175079 -1.0766
0.0480426 -0.17561 -1.07656
0.0489931 -0.174082 -1.07668
0.0476823 -0.164648 -1.0774
0.0476639 -0.164112 -1.07694
0.0481087 -0.147175 -1.07873
0.0471254 -0.147707 -1.0787
0.0480759 -0.146179 -1.07881
0.0480431 -0.145182 -1.07888
0.0480104 -0.144186 -1.07896
0.046976 -0.143184 -1.07854
0.0479776 -0.143189 -1.07904
0.0469616 -0.142724 -1.07908
0.0480283 -0.17515 -1.0771
0.0480139 -0.17469 -1.07764
0.0489971 -0.174158 -1.07767
0.0489644 -0.173162 -1.07775
0.0477518 -0.166717 -1.07825
0.0477335 -0.166181 -1.07778
0.0487351 -0.166186 -1.07828
0.0477007 -0.165184 -1.07786
0.0471111 -0.147246 -1.07923
0.0470967 -0.146786 -1.07977
0.0480799 -0.146255 -1.07981
0.0480472 -0.145258 -1.07988
0.0480144 -0.144262 -1.07996
0.0479817 -0.143265 -1.08003
0.0469657 -0.1428 -1.08007
0.0490012 -0.174235 -1.07867
0.0480179 -0.174766 -1.07863
0.0489684 -0.173238 -1.07875
0.0477886 -0.16779 -1.07917
0.0477702 -0.167254 -1.07871
0.048084 -0.146331 -1.0808
0.0471007 -0.146862 -1.08077
0.0480512 -0.145334 -1.08088
0.0480185 -0.144338 -1.08095
0.0479857 -0.143341 -1.08103
0.0469513 -0.14234 -1.08061
0.0479529 -0.142345 -1.08111
0.046937 -0.141879 -1.08115
0.0480036 -0.174306 -1.07917
0.0479892 -0.173845 -1.07971
0.0489724 -0.173314 -1.07974
0.0489397 -0.172318 -1.07982
0.0478254 -0.168863 -1.08009
0.047807 -0.168326 -1.07963
0.0470864 -0.146402 -1.0813
0.047072 -0.145942 -1.08184
0.0480552 -0.145411 -1.08188
0.0480225 -0.144414 -1.08195
0.0479897 -0.143417 -1.08203
0.047957 -0.142421 -1.0821
0.046941 -0.141956 -1.08214
0.0489765 -0.17339 -1.08074
0.0479933 -0.173921 -1.0807
0.0489437 -0.172394 -1.08082
0.048911 -0.171397 -1.08089
0.0488782 -0.170401 -1.08097
0.0488455 -0.169404 -1.08104
0.0478295 -0.168939 -1.08108
0.0470577 -0.145482 -1.08238
0.0470433 -0.145021 -1.08291
0.0480265 -0.14449 -1.08295
0.0479938 -0.143494 -1.08303
0.0469594 -0.142492 -1.0826
0.0469778 -0.143028 -1.08306
0.0479789 -0.173461 -1.08124
0.0479461 -0.172465 -1.08132
0.0479318 -0.172004 -1.08185
0.048915 -0.171473 -1.08189
0.0478806 -0.170472 -1.08147
0.047899 -0.171008 -1.08193
0.0478479 -0.169475 -1.08154
0.0470289 -0.144561 -1.08345
0.0469962 -0.143565 -1.08353
0.0479174 -0.171544 -1.08239
0.047991 -0.17369 -1.08423
0.0480094 -0.174226 -1.08469
0.0489926 -0.173695 -1.08473
0.0489599 -0.172698 -1.0848
0.0479582 -0.172693 -1.08431
0.0489271 -0.171701 -1.08488
0.0479255 -0.171696 -1.08438
0.0479111 -0.171236 -1.08492
0.0481261 -0.177752 -1.08492
0.0481445 -0.178288 -1.08538
0.0491277 -0.177757 -1.08542