<VTKFile type="UnstructuredGrid" version="0.1" byte_order="BigEndian">
  <UnstructuredGrid>
    <Piece NumberOfPoints="12966" NumberOfCells="25936">
      <PointData>
        <DataArray type="Float64" Name="position" NumberOfComponents="3" format="ascii">
0.0632907 -0.160022 -1.06217
0.0633091 -0.160559 -1.06263
0.0642922 -0.160027 -1.06267
0.0632762 -0.159562 -1.06271
0.0633276 -0.161095 -1.06309
0.063346 -0.161631 -1.06355
0.0643291 -0.1611 -1.06359
0.0642962 -0.160104 -1.06367
0.0632616 -0.159102 -1.06325
0.0642632 -0.159107 -1.06374
0.0632471 -0.158642 -1.06378
0.0633645 -0.162168 -1.06401
0.0633829 -0.162704 -1.06448
0.064366 -0.162173 -1.06451
0.064333 -0.161176 -1.06459
0.0643001 -0.16018 -1.06466
0.0642671 -0.159183 -1.06474
0.063251 -0.158718 -1.06478
0.0643699 -0.162249 -1.06551
0.0633868 -0.162781 -1.06547
0.0643369 -0.161253 -1.06559
0.064304 -0.160256 -1.06566
0.064271 -0.15926 -1.06574
0.0632549 -0.158795 -1.06578
0.0634052 -0.163317 -1.06593
0.0634237 -0.163854 -1.06639
0.0644068 -0.163322 -1.06643
0.0643738 -0.162326 -1.06651
0.0643408 -0.161329 -1.06658
0.0643079 -0.160333 -1.06666
0.0642749 -0.159336 -1.06674
0.0632588 -0.158871 -1.06677
0.0644107 -0.163399 -1.06743
0.0634276 -0.16393 -1.06739
0.0643777 -0.162402 -1.0675
0.0643448 -0.161405 -1.06758
0.0643118 -0.160409 -1.06766
0.0642788 -0.159412 -1.06773
0.0632627 -0.158947 -1.06777
0.0644146 -0.163475 -1.06842
0.0634315 -0.164006 -1.06839
0.0643816 -0.162478 -1.0685
0.0643487 -0.161482 -1.06858
0.0643157 -0.160485 -1.06865
0.0642827 -0.159489 -1.06873
0.0632666 -0.159024 -1.06877
0.0644185 -0.163551 -1.06942
0.0634354 -0.164083 -1.06938
0.0643855 -0.162555 -1.0695
0.0643526 -0.161558 -1.06957
0.0643196 -0.160562 -1.06965
0.0642866 -0.159565 -1.06973
0.0632705 -0.1591 -1.06977
0.0644224 -0.163628 -1.07042
0.0634393 -0.164159 -1.07038
0.0643894 -0.162631 -1.07049
0.0643565 -0.161634 -1.07057
0.0643235 -0.160638 -1.07065
0.0642905 -0.159641 -1.07072
0.0632744 -0.159176 -1.07076
0.0644263 -0.163704 -1.07142
0.0634432 -0.164235 -1.07138
0.0643934 -0.162707 -1.07149
0.0643604 -0.161711 -1.07157
0.0643274 -0.160714 -1.07164
0.0632929 -0.159713 -1.07122
0.0633113 -0.160249 -1.07168
0.0634287 -0.163775 -1.07191
0.0634142 -0.163315 -1.07245
0.0643973 -0.162784 -1.07249
0.0643643 -0.161787 -1.07256
0.0633298 -0.160786 -1.07214
0.0633482 -0.161322 -1.0726
0.0633996 -0.162855 -1.07299
0.0633666 -0.161859 -1.07306
0.0613574 -0.162082 -1.06202
0.0613759 -0.162618 -1.06248
0.062359 -0.162087 -1.06252
0.062326 -0.16109 -1.0626
0.0613245 -0.161085 -1.0621
0.0612915 -0.160089 -1.06218
0.0622601 -0.159097 -1.06275
0.0612585 -0.159092 -1.06225
0.061244 -0.158632 -1.06279
0.0623629 -0.162163 -1.06352
0.0613798 -0.162694 -1.06348
0.062231 -0.158177 -1.06382
0.0612295 -0.158172 -1.06333
0.0612149 -0.157712 -1.06386
0.0613837 -0.162771 -1.06448
0.0622349 -0.158253 -1.06482
0.0612188 -0.157788 -1.06486
0.0614021 -0.163307 -1.06494
0.0614206 -0.163844 -1.0654
0.0624037 -0.163312 -1.06544
0.0622388 -0.15833 -1.06582
0.0612227 -0.157864 -1.06586
0.0614245 -0.16392 -1.0664
0.0622427 -0.158406 -1.06681
0.0612267 -0.157941 -1.06685
0.0614429 -0.164456 -1.06686
0.0614614 -0.164993 -1.06732
0.0624445 -0.164461 -1.06735
0.0622466 -0.158482 -1.06781
0.0612306 -0.158017 -1.06785
0.0624484 -0.164538 -1.06835
0.0614653 -0.165069 -1.06831
0.0622506 -0.158559 -1.06881
0.0612345 -0.158093 -1.06885
0.0614837 -0.165606 -1.06877
0.0615022 -0.166142 -1.06923
0.0624853 -0.165611 -1.06927
0.0624523 -0.164614 -1.06935
0.0612713 -0.159166 -1.06977
0.0612529 -0.15863 -1.06931
0.0624892 -0.165687 -1.07027
0.0615061 -0.166218 -1.07023
0.0624562 -0.16469 -1.07034
0.0612753 -0.159243 -1.07077
0.0624931 -0.165763 -1.07126
0.06151 -0.166295 -1.07123
0.0624601 -0.164767 -1.07134
0.0622952 -0.159784 -1.07172
0.0612792 -0.159319 -1.07176
0.062497 -0.16584 -1.07226
0.0615139 -0.166371 -1.07223
0.062464 -0.164843 -1.07234
0.062431 -0.163847 -1.07241
0.0623321 -0.160857 -1.07264
0.0622992 -0.159861 -1.07272
0.0612831 -0.159395 -1.07276
0.0614993 -0.165911 -1.07276
0.0614848 -0.165451 -1.0733
0.0624679 -0.164919 -1.07334
0.0624349 -0.163923 -1.07341
0.062402 -0.162926 -1.07349
0.062369 -0.16193 -1.07356
0.062336 -0.160933 -1.07364
0.0613015 -0.159932 -1.07322
0.0613199 -0.160468 -1.07368
0.0614703 -0.164991 -1.07384
0.0614557 -0.164531 -1.07437
0.0624389 -0.163999 -1.07441
0.0624059 -0.163003 -1.07449
0.0613714 -0.162001 -1.07406
0.0613898 -0.162538 -1.07453
0.0613384 -0.161005 -1.07414
0.0614412 -0.164071 -1.07491
0.0614082 -0.163074 -1.07499
0.0593214 -0.161075 -1.06111
0.0593398 -0.161612 -1.06157
0.0603229 -0.16108 -1.0616
0.06029 -0.160084 -1.06168
0.0592884 -0.160079 -1.06118
0.060257 -0.159087 -1.06176
0.0592554 -0.159082 -1.06126
0.0592409 -0.158622 -1.0618
0.0593583 -0.162148 -1.06203
0.0593767 -0.162684 -1.06249
0.0602279 -0.158167 -1.06283
0.0592264 -0.158162 -1.06233
0.0592118 -0.157702 -1.06287
0.0593806 -0.162761 -1.06348
0.0592157 -0.157778 -1.06387
0.059399 -0.163297 -1.06394
0.0594175 -0.163834 -1.0644
0.0604006 -0.163302 -1.06444
0.0602028 -0.157323 -1.0649
0.0592012 -0.157318 -1.0644
0.0591867 -0.156858 -1.06494
0.0594214 -0.16391 -1.0654
0.0602067 -0.157399 -1.0659
0.0591906 -0.156934 -1.06594
0.0594253 -0.163986 -1.0664
0.0602106 -0.157476 -1.06689
0.0591945 -0.157011 -1.06693
0.0594437 -0.164523 -1.06686
0.0594622 -0.165059 -1.06732
0.0602145 -0.157552 -1.06789
0.0591984 -0.157087 -1.06793
0.0594806 -0.165596 -1.06778
0.0594991 -0.166132 -1.06824
0.0604822 -0.165601 -1.06828
0.0602184 -0.157628 -1.06889
0.0592023 -0.157163 -1.06893
0.059503 -0.166208 -1.06924
0.0602553 -0.158701 -1.06981
0.0592392 -0.158236 -1.06985
0.0592207 -0.1577 -1.06939
0.0595069 -0.166285 -1.07023
0.0602592 -0.158778 -1.07081
0.0592431 -0.158313 -1.07085
0.0595253 -0.166821 -1.07069
0.0595438 -0.167358 -1.07115
0.0605269 -0.166826 -1.07119
0.0602631 -0.158854 -1.0718
0.059247 -0.158389 -1.07184
0.0605308 -0.166903 -1.07219
0.0595477 -0.167434 -1.07215
0.0592839 -0.159462 -1.07276
0.0592654 -0.158925 -1.0723
0.0605347 -0.166979 -1.07319
0.0595516 -0.16751 -1.07315
0.0605017 -0.165982 -1.07326
0.0593208 -0.160535 -1.07368
0.0593023 -0.159998 -1.07322
0.059537 -0.16705 -1.07369
0.0595225 -0.16659 -1.07422
0.0605056 -0.166059 -1.07426
0.0604726 -0.165062 -1.07434
0.0603737 -0.162073 -1.07456
0.0593576 -0.161608 -1.0746
0.0593392 -0.161071 -1.07414
0.0605095 -0.166135 -1.07526
0.0595264 -0.166667 -1.07522
0.0604765 -0.165139 -1.07533
0.0604436 -0.164142 -1.07541
0.0604106 -0.163146 -1.07549
0.0593945 -0.16268 -1.07552
0.0593761 -0.162144 -1.07506
0.0595119 -0.166206 -1.07576
0.0594973 -0.165746 -1.07629
0.0604805 -0.165215 -1.07633
0.0594459 -0.164213 -1.07591
0.0594644 -0.16475 -1.07637
0.059413 -0.163217 -1.07599
0.0594828 -0.165286 -1.07683
0.0573222 -0.161141 -1.06111
0.0573406 -0.161678 -1.06157
0.0572892 -0.160145 -1.06118
0.0572562 -0.159148 -1.06126
0.0572417 -0.158688 -1.0618
0.0573591 -0.162214 -1.06203
0.0573775 -0.162751 -1.06249
0.0572272 -0.158228 -1.06233
0.0572126 -0.157768 -1.06287
0.0573959 -0.163287 -1.06295
0.0574144 -0.163824 -1.06341
0.0583975 -0.163292 -1.06345
0.0581997 -0.157313 -1.06391
0.0571981 -0.157308 -1.06341
0.0571836 -0.156848 -1.06394
0.0574183 -0.1639 -1.06441
0.0571875 -0.156924 -1.06494
0.0574367 -0.164436 -1.06487
0.0574552 -0.164973 -1.06533
0.0584383 -0.164441 -1.06536
0.0581745 -0.156469 -1.06598
0.0571729 -0.156464 -1.06548
0.0571584 -0.156004 -1.06602
0.0584422 -0.164518 -1.06636
0.0574591 -0.165049 -1.06632
0.0581784 -0.156546 -1.06697
0.0571623 -0.15608 -1.06701
0.0574775 -0.165586 -1.06678
0.057496 -0.166122 -1.06725
0.0584791 -0.165591 -1.06728
0.0581823 -0.156622 -1.06797
0.0571662 -0.156157 -1.06801
0.0574999 -0.166198 -1.06824
0.0572031 -0.15723 -1.06893
0.0571847 -0.156693 -1.06847
0.0575183 -0.166735 -1.0687
0.0575367 -0.167271 -1.06916
0.0585199 -0.16674 -1.0692
0.0582231 -0.157771 -1.06989
0.057207 -0.157306 -1.06993
0.0585238 -0.166816 -1.0702
0.0575407 -0.167348 -1.07016
0.058227 -0.157847 -1.07088
0.0572109 -0.157382 -1.07092
0.0575446 -0.167424 -1.07116
0.0572478 -0.158455 -1.07185
0.0572294 -0.157919 -1.07138
0.0575485 -0.1675 -1.07215
0.0572847 -0.159528 -1.07277
0.0572662 -0.158992 -1.07231
0.0575524 -0.167577 -1.07315
0.0583047 -0.16007 -1.07372
0.0572886 -0.159604 -1.07376
0.0585394 -0.167122 -1.07419
0.0575563 -0.167653 -1.07415
0.0583416 -0.161142 -1.07464
0.0573255 -0.160677 -1.07468
0.057307 -0.160141 -1.07422
0.0585433 -0.167198 -1.07518
0.0575602 -0.167729 -1.07515
0.0583784 -0.162215 -1.07556
0.0573624 -0.16175 -1.0756
0.0573439 -0.161214 -1.07514
0.0585472 -0.167274 -1.07618
0.0575641 -0.167806 -1.07614
0.0585142 -0.166278 -1.07626
0.0584483 -0.164285 -1.07641
0.0574322 -0.16382 -1.07645
0.0574138 -0.163283 -1.07599
0.0573808 -0.162287 -1.07606
0.0575496 -0.167346 -1.07668
0.057535 -0.166886 -1.07722
0.0585181 -0.166354 -1.07725
0.0584852 -0.165358 -1.07733
0.0574691 -0.164893 -1.07737
0.0574506 -0.164356 -1.07691
0.0575205 -0.166426 -1.07775
0.0574875 -0.165429 -1.07783
0.055323 -0.161208 -1.06111
0.0553414 -0.161744 -1.06157
0.05529 -0.160211 -1.06119
0.0552755 -0.159751 -1.06172
0.0562586 -0.15922 -1.06176
0.0553599 -0.162281 -1.06203
0.0553783 -0.162817 -1.06249
0.055261 -0.159291 -1.06226
0.055228 -0.158295 -1.06234
0.0552134 -0.157834 -1.06287
0.0553967 -0.163354 -1.06295
0.0554152 -0.16389 -1.06341
0.0551989 -0.157374 -1.06341
0.0551844 -0.156914 -1.06395
0.0554191 -0.163966 -1.06441
0.0551883 -0.156991 -1.06494
0.0554375 -0.164503 -1.06487
0.055456 -0.165039 -1.06533
0.0551738 -0.156531 -1.06548
0.0551592 -0.15607 -1.06602
0.0554599 -0.165116 -1.06633
0.0551631 -0.156147 -1.06702
0.0554783 -0.165652 -1.06679
0.0554968 -0.166188 -1.06725
0.055167 -0.156223 -1.06801
0.0555152 -0.166725 -1.06771
0.0555336 -0.167261 -1.06817
0.0565168 -0.16673 -1.06821
0.056187 -0.156765 -1.06897
0.0551709 -0.1563 -1.06901
0.0555376 -0.167338 -1.06917
0.0561909 -0.156841 -1.06997
0.0551748 -0.156376 -1.07001
0.055556 -0.167874 -1.06963
0.0555744 -0.168411 -1.07009
0.0565575 -0.167879 -1.07012
0.0552117 -0.157449 -1.07093
0.0551933 -0.156912 -1.07047
0.0565614 -0.167955 -1.07112
0.0555783 -0.168487 -1.07108
0.0562317 -0.15799 -1.07188
0.0552156 -0.157525 -1.07192
0.0565654 -0.168032 -1.07212
0.0555822 -0.168563 -1.07208
0.0562686 -0.159063 -1.07281
0.0552525 -0.158598 -1.07284
0.0552341 -0.158062 -1.07238
0.0565693 -0.168108 -1.07311
0.0555862 -0.16864 -1.07308
0.0552894 -0.159671 -1.07377
0.055271 -0.159134 -1.07331
0.0565732 -0.168185 -1.07411
0.0555901 -0.168716 -1.07407
0.0553263 -0.160744 -1.07469
0.0553078 -0.160207 -1.07423
0.0565771 -0.168261 -1.07511
0.055594 -0.168792 -1.07507
0.0553632 -0.161817 -1.07561
0.0553447 -0.16128 -1.07515
0.056581 -0.168337 -1.07611
0.0555979 -0.168869 -1.07607
0.0564161 -0.163355 -1.07649
0.0554 -0.162889 -1.07653
0.0553816 -0.162353 -1.07607
0.0565849 -0.168414 -1.0771
0.0556018 -0.168945 -1.07707
0.0565519 -0.167417 -1.07718
0.056453 -0.164427 -1.07741
0.0554369 -0.163962 -1.07745
0.0554185 -0.163426 -1.07699
0.0555872 -0.168485 -1.0776
0.0555727 -0.168025 -1.07814
0.0565558 -0.167493 -1.07818
0.0565229 -0.166497 -1.07825
0.0555068 -0.166032 -1.07829
0.0554883 -0.165495 -1.07783
0.0554554 -0.164499 -1.07791
0.0555582 -0.167565 -1.07868
0.0555252 -0.166568 -1.07875
0.0543253 -0.161279 -1.06161
0.0542924 -0.160283 -1.06169
0.0533607 -0.162347 -1.06203
0.0533791 -0.162883 -1.06249
0.0533277 -0.16135 -1.06211
0.0532947 -0.160354 -1.06219
0.0532618 -0.159357 -1.06226
0.0532288 -0.158361 -1.06234
0.0532143 -0.157901 -1.06288
0.0533976 -0.16342 -1.06296
0.053416 -0.163956 -1.06342
0.0531997 -0.157441 -1.06341
0.0531852 -0.156981 -1.06395
0.0534199 -0.164033 -1.06441
0.0541722 -0.156526 -1.06498
0.0531707 -0.156521 -1.06449
0.0531561 -0.15606 -1.06502
0.0534383 -0.164569 -1.06487
0.0534568 -0.165106 -1.06533
0.05316 -0.156137 -1.06602
0.0534752 -0.165642 -1.06579
0.0534937 -0.166178 -1.06625
0.0544768 -0.165647 -1.06629
0.054147 -0.155682 -1.06705
0.0531455 -0.155677 -1.06656
0.053131 -0.155217 -1.06709
0.0534976 -0.166255 -1.06725
0.054151 -0.155758 -1.06805
0.0531349 -0.155293 -1.06809
0.053516 -0.166791 -1.06771
0.0535345 -0.167328 -1.06817
0.0541549 -0.155834 -1.06905
0.0531388 -0.155369 -1.06909
0.0535529 -0.167864 -1.06863
0.0535713 -0.168401 -1.06909
0.0545544 -0.167869 -1.06913
0.0531757 -0.156442 -1.07001
0.0531572 -0.155906 -1.06955
0.0535752 -0.168477 -1.07009
0.0541956 -0.156984 -1.07097
0.0531796 -0.156519 -1.07101
0.0535937 -0.169013 -1.07055
0.0536121 -0.16955 -1.07101
0.0545952 -0.169018 -1.07105
0.0532164 -0.157591 -1.07193
0.053198 -0.157055 -1.07147
0.0545991 -0.169095 -1.07204
0.053616 -0.169626 -1.07201
0.0542364 -0.158133 -1.07288
0.0532203 -0.157668 -1.07292
0.054603 -0.169171 -1.07304
0.0536199 -0.169702 -1.073
0.0542733 -0.159206 -1.07381
0.0532572 -0.158741 -1.07384
0.0532388 -0.158204 -1.07338
0.0546069 -0.169247 -1.07404
0.0536238 -0.169779 -1.074
0.0543102 -0.160279 -1.07473
0.0532941 -0.159814 -1.07477
0.0532757 -0.159277 -1.07431
0.0546109 -0.169324 -1.07503
0.0536277 -0.169855 -1.075
0.053364 -0.161883 -1.07561
0.0533455 -0.161347 -1.07515
0.0533125 -0.16035 -1.07523
0.0546148 -0.1694 -1.07603
0.0536317 -0.169932 -1.076
0.0534008 -0.162956 -1.07653
0.0533824 -0.162419 -1.07607
0.0546187 -0.169476 -1.07703
0.0536356 -0.170008 -1.07699
0.0534707 -0.165025 -1.07737
0.0534523 -0.164489 -1.07691
0.0544538 -0.164494 -1.07741
0.0534193 -0.163492 -1.07699
0.0546226 -0.169553 -1.07803
0.0536395 -0.170084 -1.07799
0.0545896 -0.168556 -1.0781
0.0535076 -0.166098 -1.0783
0.0534891 -0.165562 -1.07783
0.0536249 -0.169624 -1.07853
0.0536104 -0.169164 -1.07906
0.0545935 -0.168633 -1.0791
0.053559 -0.167631 -1.07868
0.0535774 -0.168168 -1.07914
0.053526 -0.166635 -1.07876
0.0535959 -0.168704 -1.0796
0.0513615 -0.162413 -1.06204
0.0513799 -0.16295 -1.0625
0.0513285 -0.161417 -1.06211
0.0512955 -0.16042 -1.06219
0.0512626 -0.159424 -1.06227
0.0512296 -0.158427 -1.06234
0.0512151 -0.157967 -1.06288
0.0513984 -0.163486 -1.06296
0.0514168 -0.164023 -1.06342
0.0512005 -0.157507 -1.06342
0.051186 -0.157047 -1.06395
0.0514352 -0.164559 -1.06388
0.0514537 -0.165096 -1.06434
0.0524368 -0.164564 -1.06438
0.0511715 -0.156587 -1.06449
0.0511569 -0.156127 -1.06503
0.0514721 -0.165632 -1.0648
0.0514906 -0.166168 -1.06526
0.0524737 -0.165637 -1.0653
0.0521439 -0.155672 -1.06606
0.0511424 -0.155667 -1.06556
0.0511279 -0.155207 -1.0661
0.051509 -0.166705 -1.06572
0.0515274 -0.167241 -1.06618
0.0525106 -0.16671 -1.06622
0.0511318 -0.155283 -1.0671
0.0525145 -0.166786 -1.06721
0.0515314 -0.167318 -1.06718
0.0511357 -0.155359 -1.06809
0.0515498 -0.167854 -1.06764
0.0515682 -0.168391 -1.0681
0.0525513 -0.167859 -1.06813
0.0511396 -0.155436 -1.06909
0.0515867 -0.168927 -1.06856
0.0516051 -0.169463 -1.06902
0.0525882 -0.168932 -1.06906
0.0511765 -0.156509 -1.07001
0.051158 -0.155972 -1.06955
0.0516236 -0.17 -1.06948
0.051642 -0.170536 -1.06994
0.0526251 -0.170005 -1.06998
0.0525921 -0.169008 -1.07005
0.0511804 -0.156585 -1.07101
0.052629 -0.170081 -1.07097
0.0516459 -0.170613 -1.07094
0.0522004 -0.157126 -1.07197
0.0511843 -0.156661 -1.07201
0.0526329 -0.170158 -1.07197
0.0516498 -0.170689 -1.07193
0.0512212 -0.157734 -1.07293
0.0512027 -0.157198 -1.07247
0.0516682 -0.171225 -1.07239
0.0516867 -0.171762 -1.07285
0.0526698 -0.17123 -1.07289
0.0526368 -0.170234 -1.07297
0.051258 -0.158807 -1.07385
0.0512396 -0.158271 -1.07339
0.0526737 -0.171307 -1.07389
0.0516906 -0.171838 -1.07385
0.0526407 -0.17031 -1.07396
0.0512949 -0.15988 -1.07477
0.0512765 -0.159343 -1.07431
0.0526776 -0.171383 -1.07488
0.0516945 -0.171915 -1.07485
0.0526446 -0.170387 -1.07496
0.0513648 -0.161949 -1.07561
0.0513463 -0.161413 -1.07515
0.0513134 -0.160416 -1.07523
0.0526815 -0.17146 -1.07588
0.0516984 -0.171991 -1.07584
0.0526485 -0.170463 -1.07596
0.0514346 -0.164019 -1.07646
0.0514162 -0.163482 -1.076
0.0524177 -0.163487 -1.07649
0.0513832 -0.162486 -1.07607
0.0526854 -0.171536 -1.07688
0.0517023 -0.172067 -1.07684
0.0526524 -0.170539 -1.07696
0.0514715 -0.165092 -1.07738
0.0514531 -0.164555 -1.07692
0.0526893 -0.171612 -1.07788
0.0517062 -0.172144 -1.07784
0.0526564 -0.170616 -1.07795
0.0515084 -0.166164 -1.0783
0.0514899 -0.165628 -1.07784
0.0516917 -0.171684 -1.07838
0.0516772 -0.171223 -1.07891
0.0526603 -0.170692 -1.07895
0.0526273 -0.169696 -1.07903
0.0525613 -0.167702 -1.07918
0.0515453 -0.167237 -1.07922
0.0515268 -0.166701 -1.07876
0.0516626 -0.170763 -1.07945
0.0516296 -0.169767 -1.07953
0.0515967 -0.16877 -1.0796
0.0515637 -0.167774 -1.07968
0.0519247 -0.17835 -1.08689
0.0519431 -0.178886 -1.08735
0.0529262 -0.178355 -1.08739
0.0528933 -0.177358 -1.08746
0.0518917 -0.177353 -1.08697
0.0528603 -0.176362 -1.08754
0.0518587 -0.176357 -1.08704
0.0528273 -0.175365 -1.08762
0.0518258 -0.17536 -1.08712
0.0518112 -0.1749 -1.08766
0.0519616 -0.179423 -1.08781
0.05198 -0.179959 -1.08827
0.0529631 -0.179428 -1.08831
0.0529301 -0.178431 -1.08839
0.0528972 -0.177435 -1.08846
0.0528642 -0.176438 -1.08854
0.0528312 -0.175442 -1.08861
0.0518151 -0.174977 -1.08865
0.0519984 -0.180496 -1.08873
0.0520169 -0.181032 -1.08919
0.053 -0.180501 -1.08923
0.052967 -0.179504 -1.08931
0.0529341 -0.178508 -1.08938
0.0529011 -0.177511 -1.08946
0.0518666 -0.17651 -1.08904
0.051885 -0.177046 -1.0895
0.0518336 -0.175513 -1.08911
0.0530039 -0.180577 -1.09023
0.0520208 -0.181108 -1.09019
0.0529709 -0.17958 -1.0903
0.052938 -0.178584 -1.09038
0.0519034 -0.177582 -1.08996
0.0519219 -0.178119 -1.09042
0.0520063 -0.180648 -1.09073
0.0519733 -0.179652 -1.0908
0.0519403 -0.178655 -1.09088
0.0493623 -0.16248 -1.06204
0.0493807 -0.163016 -1.0625
0.0493293 -0.161483 -1.06212
0.0492963 -0.160487 -1.06219
0.0492634 -0.15949 -1.06227
0.0492304 -0.158494 -1.06235
0.050199 -0.157502 -1.06292
0.0491974 -0.157497 -1.06242
0.0491829 -0.157037 -1.06296
0.0494321 -0.164549 -1.06288
0.0494506 -0.165086 -1.06334
0.0504337 -0.164554 -1.06338
0.0493992 -0.163553 -1.06296
0.0501699 -0.156582 -1.06399
0.0491684 -0.156577 -1.0635
0.0491538 -0.156117 -1.06403
0.049469 -0.165622 -1.0638
0.0494875 -0.166158 -1.06427
0.0504706 -0.165627 -1.0643
0.0501408 -0.155662 -1.06507
0.0491393 -0.155657 -1.06457
0.0491248 -0.155197 -1.06511
0.0495059 -0.166695 -1.06473
0.0495243 -0.167231 -1.06519
0.0505075 -0.1667 -1.06522
0.0501118 -0.154742 -1.06614
0.0491102 -0.154737 -1.06564
0.0490957 -0.154276 -1.06618
0.0495428 -0.167768 -1.06565
0.0495612 -0.168304 -1.06611
0.0505443 -0.167773 -1.06614
0.0501157 -0.154818 -1.06714
0.0490996 -0.154353 -1.06718
0.0495797 -0.168841 -1.06657
0.0495981 -0.169377 -1.06703
0.0505812 -0.168846 -1.06706
0.0505482 -0.167849 -1.06714
0.0491365 -0.155426 -1.0681
0.049118 -0.154889 -1.06764
0.0496165 -0.169914 -1.06749
0.049635 -0.17045 -1.06795
0.0506181 -0.169919 -1.06798
0.0505851 -0.168922 -1.06806
0.0491404 -0.155502 -1.06909
0.0496534 -0.170986 -1.06841
0.0496719 -0.171523 -1.06887
0.050655 -0.170991 -1.06891
0.050622 -0.169995 -1.06898
0.0501604 -0.156043 -1.07005
0.0491443 -0.155578 -1.07009
0.0496903 -0.172059 -1.06933
0.0497087 -0.172596 -1.06979
0.0506919 -0.172064 -1.06983
0.0506589 -0.171068 -1.0699
0.0491812 -0.156651 -1.07101
0.0491627 -0.156115 -1.07055
0.0506958 -0.172141 -1.07082
0.0497126 -0.172672 -1.07079
0.0506628 -0.171144 -1.0709
0.0491851 -0.156728 -1.07201
0.0506997 -0.172217 -1.07182
0.0497166 -0.172748 -1.07178
0.0506667 -0.17122 -1.0719
0.049222 -0.157801 -1.07293
0.0492035 -0.157264 -1.07247
0.049735 -0.173285 -1.07224
0.0497534 -0.173821 -1.0727
0.0507365 -0.17329 -1.07274
0.0507036 -0.172293 -1.07282
0.0492588 -0.158873 -1.07385
0.0492404 -0.158337 -1.07339
0.0507405 -0.173366 -1.07374
0.0497573 -0.173898 -1.0737
0.0507075 -0.17237 -1.07381
0.0493287 -0.160943 -1.07469
0.0493103 -0.160406 -1.07423
0.0503118 -0.160411 -1.07473
0.0492773 -0.15941 -1.07431
0.0507444 -0.173443 -1.07473
0.0497612 -0.173974 -1.0747
0.0507114 -0.172446 -1.07481
0.0493656 -0.162016 -1.07562
0.0493471 -0.161479 -1.07515
0.0507483 -0.173519 -1.07573
0.0497652 -0.17405 -1.07569
0.0507153 -0.172522 -1.07581
0.0494354 -0.164085 -1.07646
0.049417 -0.163549 -1.076
0.049384 -0.162552 -1.07608
0.0507522 -0.173595 -1.07673
0.0497691 -0.174127 -1.07669
0.0507192 -0.172599 -1.07681
0.0494723 -0.165158 -1.07738
0.0494539 -0.164622 -1.07692
0.0497545 -0.173667 -1.07723
0.04974 -0.173207 -1.07777
0.0507231 -0.172675 -1.0778
0.0495092 -0.166231 -1.0783
0.0494907 -0.165694 -1.07784
0.050727 -0.172751 -1.0788
0.0497439 -0.173283 -1.07876
0.050694 -0.171755 -1.07888
0.049579 -0.1683 -1.07914
0.0495606 -0.167764 -1.07868
0.0505622 -0.167769 -1.07918
0.0495276 -0.166767 -1.07876
0.0497294 -0.172823 -1.0793
0.0497148 -0.172363 -1.07984
0.050698 -0.171831 -1.07987
0.050665 -0.170835 -1.07995
0.050632 -0.169838 -1.08003
0.0496159 -0.169373 -1.08007
0.0495975 -0.168837 -1.07961
0.0497003 -0.171903 -1.08037
0.0496673 -0.170906 -1.08045
0.0496344 -0.16991 -1.08053
0.0498886 -0.177343 -1.08597
0.0499071 -0.17788 -1.08643
0.0508902 -0.177348 -1.08647
0.0508572 -0.176352 -1.08655
0.0498556 -0.176347 -1.08605
0.0508242 -0.175355 -1.08662
0.0498227 -0.17535 -1.08613
0.0507912 -0.174359 -1.0867
0.0497897 -0.174354 -1.0862
0.0507583 -0.173362 -1.08678
0.0497567 -0.173357 -1.08628
0.0507253 -0.172366 -1.08685
0.0497237 -0.172361 -1.08636
0.0506923 -0.171369 -1.08693
0.0496908 -0.171364 -1.08643
0.0496762 -0.170904 -1.08697
0.0499914 -0.180409 -1.08674
0.0500099 -0.180946 -1.0872
0.050993 -0.180414 -1.08724
0.05096 -0.179418 -1.08731
0.0499585 -0.179413 -1.08682
0.0499255 -0.178416 -1.08689
0.0507952 -0.174435 -1.0877
0.0507622 -0.173439 -1.08777
0.0507292 -0.172442 -1.08785
0.0496947 -0.171441 -1.08743
0.0497131 -0.171977 -1.08789
0.0500283 -0.181482 -1.08766
0.0500468 -0.182019 -1.08812
0.0510299 -0.181487 -1.08816
0.0509969 -0.180491 -1.08824
0.0507991 -0.174512 -1.08869
0.0507661 -0.173515 -1.08877
0.0497316 -0.172513 -1.08835
0.04975 -0.17305 -1.08881
0.0500652 -0.182555 -1.08858
0.0500836 -0.183092 -1.08904
0.0510668 -0.18256 -1.08908
0.0510338 -0.181564 -1.08916
0.0508689 -0.176581 -1.08954
0.0508359 -0.175584 -1.08961
0.0498199 -0.175119 -1.08965
0.0498014 -0.174583 -1.08919
0.0497684 -0.173586 -1.08927
0.0501021 -0.183628 -1.0895
0.0501205 -0.184164 -1.08996
0.0511036 -0.183633 -1.09
0.0510707 -0.182636 -1.09008
0.0510377 -0.18164 -1.09015
0.0509058 -0.177654 -1.09046
0.0498897 -0.177189 -1.0905
0.0498713 -0.176652 -1.09004
0.0498383 -0.175656 -1.09011
0.0511075 -0.183709 -1.091
0.0501244 -0.184241 -1.09096
0.0510746 -0.182713 -1.09107
0.0510416 -0.181716 -1.09115
0.0510086 -0.18072 -1.09123
0.0499925 -0.180255 -1.09127
0.0499741 -0.179718 -1.09081
0.0499411 -0.178722 -1.09088
0.0499081 -0.177725 -1.09096
0.0501099 -0.183781 -1.0915
0.0500954 -0.183321 -1.09203
0.0510785 -0.182789 -1.09207
0.0500439 -0.181788 -1.09165
0.0500624 -0.182324 -1.09211
0.050011 -0.180791 -1.09173
0.0500808 -0.18286 -1.09257
0.0473262 -0.161473 -1.06112
0.0473447 -0.16201 -1.06158
0.0483278 -0.161478 -1.06162
0.0482948 -0.160482 -1.0617
0.0472932 -0.160477 -1.0612
0.0482618 -0.159485 -1.06177
0.0472603 -0.15948 -1.06127
0.0482288 -0.158489 -1.06185
0.0472273 -0.158484 -1.06135
0.0481959 -0.157492 -1.06192
0.0471943 -0.157487 -1.06143
0.0481629 -0.156496 -1.062
0.0471614 -0.156491 -1.0615
0.0471468 -0.15603 -1.06204
0.0473961 -0.163543 -1.06197
0.0474145 -0.164079 -1.06243
0.0483976 -0.163548 -1.06246
0.0473631 -0.162546 -1.06204
0.0481668 -0.156572 -1.063
0.0471323 -0.15557 -1.06258
0.0481338 -0.155575 -1.06307
0.0471178 -0.15511 -1.06311
0.0474329 -0.164616 -1.06289
0.0474514 -0.165152 -1.06335
0.0481377 -0.155652 -1.06407
0.0471032 -0.15465 -1.06365
0.0481048 -0.154655 -1.06415
0.0470887 -0.15419 -1.06419
0.0475028 -0.166685 -1.06373
0.0475212 -0.167221 -1.06419
0.0485044 -0.16669 -1.06423
0.0474698 -0.165688 -1.06381
0.0481087 -0.154732 -1.06515
0.0470742 -0.15373 -1.06472
0.0480757 -0.153735 -1.06522
0.0470596 -0.15327 -1.06526
0.0475397 -0.167758 -1.06465
0.0475581 -0.168294 -1.06511
0.0485412 -0.167763 -1.06515
0.0480796 -0.153811 -1.06622
0.0470635 -0.153346 -1.06626
0.0476095 -0.169827 -1.0655
0.047628 -0.170364 -1.06596
0.0486111 -0.169832 -1.06599
0.0485781 -0.168836 -1.06607
0.0475766 -0.168831 -1.06557
0.0480835 -0.153888 -1.06722
0.0470674 -0.153423 -1.06726
0.0476794 -0.171897 -1.06634
0.0476978 -0.172433 -1.0668
0.0486809 -0.171902 -1.06684
0.048648 -0.170905 -1.06691
0.0476464 -0.1709 -1.06642
0.048615 -0.169909 -1.06699
0.0481204 -0.154961 -1.06814
0.0471043 -0.154496 -1.06818
0.0470859 -0.153959 -1.06772
0.0478482 -0.176956 -1.06695
0.0478666 -0.177492 -1.06742
0.0488497 -0.176961 -1.06745
0.0488167 -0.175964 -1.06753
0.0478152 -0.175959 -1.06703
0.0487838 -0.174968 -1.0676
0.0477822 -0.174963 -1.06711
0.0487508 -0.173971 -1.06768
0.0477492 -0.173966 -1.06718
0.0487178 -0.172974 -1.06776
0.0477163 -0.172969 -1.06726
0.0486848 -0.171978 -1.06783
0.0486519 -0.170981 -1.06791
0.0481243 -0.155037 -1.06913
0.0471082 -0.154572 -1.06917
0.047918 -0.179025 -1.0678
0.0479365 -0.179561 -1.06826
0.0489196 -0.17903 -1.0683
0.0488866 -0.178033 -1.06837
0.047885 -0.178028 -1.06788
0.0488536 -0.177037 -1.06845
0.0488206 -0.17604 -1.06853
0.0487877 -0.175044 -1.0686
0.0487547 -0.174047 -1.06868
0.0487217 -0.173051 -1.06875
0.0486888 -0.172054 -1.06883
0.0471451 -0.155645 -1.07009
0.0471267 -0.155108 -1.06963
0.0479549 -0.180098 -1.06872
0.0479733 -0.180634 -1.06918
0.0489564 -0.180103 -1.06922
0.0489235 -0.179106 -1.06929
0.0488905 -0.17811 -1.06937
0.0488575 -0.177113 -1.06945
0.0488246 -0.176117 -1.06952
0.0487916 -0.17512 -1.0696
0.0487586 -0.174124 -1.06968
0.0487256 -0.173127 -1.06975
0.047182 -0.156718 -1.07101
0.0471635 -0.156181 -1.07055
0.0479588 -0.180174 -1.06972
0.0479258 -0.179178 -1.06979
0.0478929 -0.178181 -1.06987
0.0478783 -0.177721 -1.07041
0.0488614 -0.17719 -1.07044
0.0488285 -0.176193 -1.07052
0.0487955 -0.175197 -1.0706
0.0487625 -0.1742 -1.07067
0.0487295 -0.173204 -1.07075
0.0471859 -0.156794 -1.07201
0.0478638 -0.177261 -1.07094
0.0478493 -0.176801 -1.07148
0.0488324 -0.176269 -1.07152
0.0487994 -0.175273 -1.07159
0.0487664 -0.174276 -1.07167
0.0487334 -0.17328 -1.07175
0.0472228 -0.157867 -1.07293
0.0472043 -0.15733 -1.07247
0.0488363 -0.176346 -1.07251
0.0478532 -0.176877 -1.07248
0.0488033 -0.175349 -1.07259
0.0487703 -0.174353 -1.07267
0.0472596 -0.15894 -1.07385
0.0472412 -0.158403 -1.07339
0.0478386 -0.176417 -1.07301
0.0478241 -0.175957 -1.07355
0.0488072 -0.175426 -1.07359
0.0487742 -0.174429 -1.07366
0.0473295 -0.161009 -1.0747
0.0473111 -0.160473 -1.07424
0.0472781 -0.159476 -1.07431
0.0468824 -0.147518 -1.07523
0.0469009 -0.148054 -1.07569
0.047884 -0.147523 -1.07573
0.047851 -0.146526 -1.0758
0.0468494 -0.146521 -1.07531
0.0468349 -0.146061 -1.07584
0.0488111 -0.175502 -1.07458
0.047828 -0.176033 -1.07455
0.0487781 -0.174505 -1.07466
0.0473664 -0.162082 -1.07562
0.0473479 -0.161546 -1.07516
0.0469193 -0.148591 -1.07615
0.0469377 -0.149127 -1.07661
0.0479208 -0.148596 -1.07665
0.0478879 -0.147599 -1.07672
0.0478549 -0.146603 -1.0768
0.0468204 -0.145601 -1.07638
0.0478219 -0.145606 -1.07688
0.0468058 -0.145141 -1.07692
0.048815 -0.175578 -1.07558
0.0478319 -0.17611 -1.07554
0.048782 -0.174582 -1.07566
0.0474362 -0.164151 -1.07646
0.0474178 -0.163615 -1.076
0.0473848 -0.162618 -1.07608
0.0469232 -0.148667 -1.07715
0.0469087 -0.148207 -1.07769
0.0478918 -0.147676 -1.07772
0.0478588 -0.146679 -1.0778
0.0478258 -0.145682 -1.07787
0.0467913 -0.144681 -1.07745
0.0477929 -0.144686 -1.07795
0.0467768 -0.144221 -1.07799
0.0488189 -0.175655 -1.07658
0.0478358 -0.176186 -1.07654
0.048786 -0.174658 -1.07666
0.0474731 -0.165224 -1.07738
0.0474547 -0.164688 -1.07692
0.0478957 -0.147752 -1.07872
0.0469126 -0.148283 -1.07868
0.0478627 -0.146755 -1.0788
0.0478297 -0.145759 -1.07887
0.0477968 -0.144762 -1.07895
0.0467622 -0.143761 -1.07853
0.0477638 -0.143766 -1.07902
0.0467477 -0.143301 -1.07906
0.0478213 -0.175726 -1.07708
0.0478068 -0.175266 -1.07762
0.0487899 -0.174735 -1.07765
0.0487569 -0.173738 -1.07773
0.047543 -0.167294 -1.07823
0.0475245 -0.166757 -1.07777
0.0485261 -0.166762 -1.07826
0.0474916 -0.165761 -1.07784
0.046898 -0.147823 -1.07922
0.0468835 -0.147363 -1.07976
0.0478666 -0.146832 -1.07979
0.0478336 -0.145835 -1.07987
0.0478007 -0.144839 -1.07995
0.0477677 -0.143842 -1.08002
0.0467516 -0.143377 -1.08006
0.0487938 -0.174811 -1.07865
0.0478107 -0.175342 -1.07861
0.0487608 -0.173814 -1.07873
0.0475798 -0.168367 -1.07915
0.0475614 -0.16783 -1.07869
0.0478705 -0.146908 -1.08079
0.0468874 -0.14744 -1.08075
0.0478376 -0.145912 -1.08087
0.0478046 -0.144915 -1.08094
0.0477716 -0.143918 -1.08102
0.0467371 -0.142917 -1.0806
0.0477386 -0.142922 -1.0811
0.0467226 -0.142457 -1.08113
0.0477961 -0.174882 -1.07915
0.0477816 -0.174422 -1.07969
0.0487647 -0.173891 -1.07972
0.0487317 -0.172894 -1.0798
0.0476167 -0.16944 -1.08007
0.0475983 -0.168903 -1.07961
0.0468729 -0.146979 -1.08129
0.0468584 -0.146519 -1.08183
0.0478415 -0.145988 -1.08186
0.0478085 -0.144991 -1.08194
0.0477755 -0.143995 -1.08202
0.0477425 -0.142998 -1.08209
0.0467265 -0.142533 -1.08213
0.0487686 -0.173967 -1.08072
0.0477855 -0.174498 -1.08068
0.0487356 -0.172971 -1.0808
0.0487027 -0.171974 -1.08087
0.0486697 -0.170977 -1.08095
0.0486367 -0.169981 -1.08103
0.0476206 -0.169516 -1.08107
0.0468438 -0.146059 -1.08236
0.0468293 -0.145599 -1.0829
0.0478124 -0.145068 -1.08294
0.0477794 -0.144071 -1.08301
0.0467449 -0.14307 -1.08259
0.0467633 -0.143606 -1.08305
0.047771 -0.174038 -1.08122
0.047738 -0.173042 -1.0813
0.0477235 -0.172582 -1.08183
0.0487066 -0.17205 -1.08187
0.047672 -0.171049 -1.08145
0.0476905 -0.171585 -1.08191
0.0476391 -0.170052 -1.08153
0.0468148 -0.145139 -1.08344
0.0467818 -0.144143 -1.08351
0.0477089 -0.172122 -1.08237
0.0477827 -0.174267 -1.08421
0.0478011 -0.174804 -1.08467
0.0487842 -0.174272 -1.08471
0.0487513 -0.173276 -1.08478
0.0477497 -0.173271 -1.08429
0.0487183 -0.172279 -1.08486
0.0477167 -0.172274 -1.08436
0.0477022 -0.171814 -1.0849
0.0479185 -0.17833 -1.0849
0.0479369 -0.178866 -1.08536
0.04892 -0.178335 -1.0854