<VTKFile type="UnstructuredGrid" version="0.1" byte_order="BigEndian">
  <UnstructuredGrid>
    <Piece NumberOfPoints="12966" NumberOfCells="25936">
      <PointData>
        <DataArray type="Float64" Name="position" NumberOfComponents="3" format="ascii">
0.0607532 -0.158514 -1.06233
0.0607744 -0.15905 -1.06279
0.0617535 -0.158511 -1.06283
0.060734 -0.158054 -1.06286
0.0607955 -0.159586 -1.06325
0.0608167 -0.160122 -1.06371
0.0617958 -0.159583 -1.06375
0.0617554 -0.158587 -1.06382
0.0607147 -0.157593 -1.0634
0.061715 -0.157591 -1.0639
0.0606954 -0.157133 -1.06394
0.0608378 -0.160658 -1.06417
0.060859 -0.161194 -1.06463
0.0618381 -0.160655 -1.06467
0.0617977 -0.159659 -1.06475
0.0617573 -0.158663 -1.06482
0.0617169 -0.157667 -1.0649
0.0606973 -0.157209 -1.06493
0.06184 -0.160731 -1.06567
0.0608609 -0.16127 -1.06563
0.0617996 -0.159735 -1.06574
0.0617592 -0.158739 -1.06582
0.0617188 -0.157742 -1.06589
0.0606992 -0.157285 -1.06593
0.0608821 -0.161806 -1.06609
0.0609032 -0.162342 -1.06655
0.0618823 -0.161803 -1.06659
0.0618419 -0.160807 -1.06666
0.0618015 -0.159811 -1.06674
0.0617611 -0.158814 -1.06682
0.0617207 -0.157818 -1.06689
0.0607011 -0.15736 -1.06693
0.0618842 -0.161879 -1.06759
0.0609051 -0.162418 -1.06755
0.0618438 -0.160883 -1.06766
0.0618034 -0.159886 -1.06774
0.061763 -0.15889 -1.06781
0.0617226 -0.157894 -1.06789
0.060703 -0.157436 -1.06793
0.0618861 -0.161955 -1.06858
0.060907 -0.162493 -1.06854
0.0618457 -0.160959 -1.06866
0.0618053 -0.159962 -1.06873
0.0617649 -0.158966 -1.06881
0.0617244 -0.15797 -1.06889
0.0607049 -0.157512 -1.06892
0.061888 -0.162031 -1.06958
0.0609089 -0.162569 -1.06954
0.0618476 -0.161034 -1.06966
0.0618072 -0.160038 -1.06973
0.0617668 -0.159042 -1.06981
0.0617263 -0.158045 -1.06988
0.0607068 -0.157588 -1.06992
0.0618899 -0.162106 -1.07058
0.0609108 -0.162645 -1.07054
0.0618495 -0.16111 -1.07065
0.0618091 -0.160114 -1.07073
0.0617687 -0.159117 -1.0708
0.0617282 -0.158121 -1.07088
0.0607087 -0.157663 -1.07092
0.0618918 -0.162182 -1.07157
0.0609127 -0.162721 -1.07153
0.0618514 -0.161186 -1.07165
0.061811 -0.16019 -1.07173
0.0617706 -0.159193 -1.0718
0.0607299 -0.1582 -1.07138
0.060751 -0.158736 -1.07184
0.0608934 -0.16226 -1.07207
0.0608742 -0.1618 -1.07261
0.0618533 -0.161262 -1.07265
0.0618129 -0.160265 -1.07272
0.0607722 -0.159272 -1.0723
0.0607933 -0.159808 -1.07276
0.0608549 -0.16134 -1.07314
0.0608145 -0.160344 -1.07322
0.0588354 -0.160587 -1.06217
0.0588566 -0.161123 -1.06263
0.0598357 -0.160585 -1.06267
0.0597953 -0.159589 -1.06275
0.058795 -0.159591 -1.06225
0.0587546 -0.158595 -1.06232
0.0597144 -0.157596 -1.0629
0.0587141 -0.157599 -1.0624
0.0586949 -0.157138 -1.06294
0.0598376 -0.160661 -1.06367
0.0588585 -0.161199 -1.06363
0.0596759 -0.156675 -1.06397
0.0586756 -0.156678 -1.06347
0.0586564 -0.156218 -1.06401
0.0588604 -0.161275 -1.06463
0.0596778 -0.156751 -1.06497
0.0586582 -0.156293 -1.06501
0.0588815 -0.161811 -1.06509
0.0589027 -0.162347 -1.06555
0.0598818 -0.161808 -1.06559
0.0596797 -0.156827 -1.06597
0.0586601 -0.156369 -1.066
0.0589046 -0.162423 -1.06655
0.0596816 -0.156903 -1.06696
0.058662 -0.156445 -1.067
0.0589257 -0.162959 -1.06701
0.0589469 -0.163495 -1.06747
0.059926 -0.162956 -1.06751
0.0596835 -0.156978 -1.06796
0.0586639 -0.156521 -1.068
0.0599279 -0.163032 -1.0685
0.0589488 -0.163571 -1.06847
0.0596854 -0.157054 -1.06896
0.0586658 -0.156597 -1.069
0.0589699 -0.164107 -1.06893
0.0589911 -0.164643 -1.06939
0.0599702 -0.164104 -1.06943
0.0599298 -0.163108 -1.0695
0.0587081 -0.157669 -1.06992
0.058687 -0.157133 -1.06946
0.0599721 -0.16418 -1.07042
0.058993 -0.164719 -1.07038
0.0599317 -0.163184 -1.0705
0.05871 -0.157744 -1.07091
0.059974 -0.164256 -1.07142
0.0589949 -0.164794 -1.07138
0.0599336 -0.163259 -1.0715
0.0597315 -0.158278 -1.07187
0.0587119 -0.15782 -1.07191
0.0599759 -0.164331 -1.07242
0.0589968 -0.16487 -1.07238
0.0599355 -0.163335 -1.07249
0.0598951 -0.162339 -1.07257
0.0597738 -0.15935 -1.0728
0.0597334 -0.158354 -1.07287
0.0587138 -0.157896 -1.07291
0.0589775 -0.16441 -1.07291
0.0589583 -0.16395 -1.07345
0.0599374 -0.163411 -1.07349
0.059897 -0.162415 -1.07357
0.0598565 -0.161418 -1.07364
0.0598161 -0.160422 -1.07372
0.0597757 -0.159426 -1.07379
0.058735 -0.158432 -1.07337
0.0587562 -0.158968 -1.07383
0.058939 -0.163489 -1.07399
0.0589197 -0.163029 -1.07452
0.0598988 -0.16249 -1.07456
0.0598584 -0.161494 -1.07464
0.0588177 -0.1605 -1.07421
0.0588389 -0.161036 -1.07468
0.0587773 -0.159504 -1.07429
0.0589005 -0.162569 -1.07506
0.05886 -0.161572 -1.07514
0.0567944 -0.159596 -1.06125
0.0568156 -0.160132 -1.06171
0.0577947 -0.159594 -1.06175
0.0577543 -0.158597 -1.06183
0.056754 -0.1586 -1.06133
0.0577139 -0.157601 -1.0619
0.0567136 -0.157604 -1.0614
0.0566943 -0.157143 -1.06194
0.0568367 -0.160668 -1.06217
0.0568579 -0.161204 -1.06263
0.0576753 -0.156681 -1.06297
0.0566751 -0.156683 -1.06247
0.0566558 -0.156223 -1.06301
0.0568598 -0.16128 -1.06363
0.0566577 -0.156299 -1.06401
0.056881 -0.161816 -1.06409
0.0569021 -0.162352 -1.06455
0.0578812 -0.161814 -1.06459
0.0576387 -0.155836 -1.06504
0.0566384 -0.155838 -1.06454
0.0566192 -0.155378 -1.06508
0.056904 -0.162428 -1.06555
0.0576406 -0.155912 -1.06604
0.0566211 -0.155454 -1.06608
0.0569059 -0.162504 -1.06654
0.0576425 -0.155987 -1.06704
0.056623 -0.15553 -1.06707
0.0569271 -0.16304 -1.06701
0.0569482 -0.163576 -1.06747
0.0576444 -0.156063 -1.06804
0.0566249 -0.155605 -1.06807
0.0569694 -0.164112 -1.06793
0.0569905 -0.164648 -1.06839
0.0579697 -0.164109 -1.06843
0.0576463 -0.156139 -1.06903
0.0566268 -0.155681 -1.06907
0.0569924 -0.164724 -1.06938
0.0576886 -0.157211 -1.06995
0.0566691 -0.156753 -1.06999
0.0566479 -0.156217 -1.06953
0.0569943 -0.164799 -1.07038
0.0576905 -0.157287 -1.07095
0.056671 -0.156829 -1.07099
0.0570155 -0.165335 -1.07084
0.0570366 -0.165871 -1.0713
0.0580158 -0.165333 -1.07134
0.0576924 -0.157362 -1.07195
0.0566729 -0.156905 -1.07198
0.0580177 -0.165409 -1.07234
0.0570385 -0.165947 -1.0723
0.0567152 -0.157977 -1.07291
0.056694 -0.157441 -1.07245
0.0580196 -0.165484 -1.07334
0.0570404 -0.166023 -1.0733
0.0579791 -0.164488 -1.07341
0.0567575 -0.159049 -1.07383
0.0567363 -0.158513 -1.07337
0.0570212 -0.165563 -1.07383
0.0570019 -0.165102 -1.07437
0.057981 -0.164564 -1.07441
0.0579406 -0.163568 -1.07448
0.0578193 -0.160579 -1.07471
0.0567998 -0.160121 -1.07475
0.0567787 -0.159585 -1.07429
0.0579829 -0.16464 -1.07541
0.0570038 -0.165178 -1.07537
0.0579425 -0.163643 -1.07548
0.0579021 -0.162647 -1.07556
0.0578617 -0.161651 -1.07563
0.0568421 -0.161193 -1.07567
0.056821 -0.160657 -1.07521
0.0569845 -0.164718 -1.0759
0.0569653 -0.164258 -1.07644
0.0579444 -0.163719 -1.07648
0.0569037 -0.162725 -1.07605
0.0569249 -0.163261 -1.07652
0.0568633 -0.161729 -1.07613
0.056946 -0.163797 -1.07698
0.0547958 -0.159677 -1.06125
0.0548169 -0.160213 -1.06171
0.0547553 -0.158681 -1.06132
0.0547149 -0.157685 -1.0614
0.0546957 -0.157224 -1.06194
0.0548381 -0.160749 -1.06217
0.0548592 -0.161285 -1.06263
0.0546764 -0.156764 -1.06247
0.0546571 -0.156304 -1.06301
0.0548804 -0.161821 -1.06309
0.0549016 -0.162357 -1.06355
0.0558807 -0.161819 -1.06359
0.0556382 -0.155841 -1.06404
0.0546379 -0.155843 -1.06354
0.0546186 -0.155383 -1.06408
0.0549035 -0.162433 -1.06455
0.0546205 -0.155459 -1.06508
0.0549246 -0.162969 -1.06501
0.0549458 -0.163505 -1.06547
0.0559249 -0.162967 -1.06551
0.0556015 -0.154996 -1.06611
0.0546013 -0.154999 -1.06561
0.054582 -0.154538 -1.06615
0.0559268 -0.163042 -1.06651
0.0549477 -0.163581 -1.06647
0.0556034 -0.155072 -1.06711
0.0545839 -0.154614 -1.06715
0.0549688 -0.164117 -1.06693
0.05499 -0.164653 -1.06739
0.0559691 -0.164114 -1.06743
0.0556053 -0.155148 -1.06811
0.0545858 -0.15469 -1.06815
0.0549919 -0.164729 -1.06838
0.0546281 -0.155762 -1.06907
0.0546069 -0.155226 -1.06861
0.055013 -0.165265 -1.06885
0.0550342 -0.165801 -1.06931
0.0560133 -0.165262 -1.06935
0.0556495 -0.156296 -1.07003
0.05463 -0.155838 -1.07006
0.0560152 -0.165338 -1.07034
0.0550361 -0.165877 -1.0703
0.0556514 -0.156371 -1.07102
0.0546319 -0.155914 -1.07106
0.055038 -0.165952 -1.0713
0.0546742 -0.156986 -1.07198
0.054653 -0.15645 -1.07152
0.0550399 -0.166028 -1.0723
0.0547165 -0.158058 -1.0729
0.0546954 -0.157522 -1.07244
0.0550418 -0.166104 -1.07329
0.055738 -0.158591 -1.07386
0.0547184 -0.158133 -1.0739
0.0560228 -0.165641 -1.07433
0.0550437 -0.16618 -1.07429
0.0557803 -0.159663 -1.07479
0.0547607 -0.159206 -1.07482
0.0547396 -0.15867 -1.07436
0.0560247 -0.165717 -1.07533
0.0550456 -0.166255 -1.07529
0.0558226 -0.160735 -1.07571
0.054803 -0.160278 -1.07574
0.0547819 -0.159742 -1.07528
0.0560266 -0.165793 -1.07632
0.0550475 -0.166331 -1.07629
0.0559862 -0.164796 -1.0764
0.0559053 -0.162804 -1.07655
0.0548858 -0.162346 -1.07659
0.0548646 -0.16181 -1.07613
0.0548242 -0.160814 -1.0762
0.0550282 -0.165871 -1.07682
0.0550089 -0.165411 -1.07736
0.0559881 -0.164872 -1.0774
0.0559476 -0.163876 -1.07747
0.0549281 -0.163418 -1.07751
0.0549069 -0.162882 -1.07705
0.0549897 -0.16495 -1.0779
0.0549493 -0.163954 -1.07797
0.0527971 -0.159758 -1.06124
0.0528183 -0.160294 -1.06171
0.0527567 -0.158762 -1.06132
0.0527374 -0.158302 -1.06186
0.0537165 -0.157763 -1.0619
0.0528394 -0.16083 -1.06217
0.0528606 -0.161366 -1.06263
0.0527182 -0.157841 -1.06239
0.0526777 -0.156845 -1.06247
0.0526585 -0.156385 -1.06301
0.0528817 -0.161902 -1.06309
0.0529029 -0.162438 -1.06355
0.0526392 -0.155924 -1.06354
0.05262 -0.155464 -1.06408
0.0529048 -0.162514 -1.06455
0.0526219 -0.15554 -1.06508
0.052926 -0.16305 -1.06501
0.0529471 -0.163586 -1.06547
0.0526026 -0.15508 -1.06561
0.0525833 -0.154619 -1.06615
0.052949 -0.163662 -1.06646
0.0525852 -0.154695 -1.06715
0.0529702 -0.164198 -1.06692
0.0529913 -0.164734 -1.06739
0.0525871 -0.154771 -1.06814
0.0530125 -0.16527 -1.06785
0.0530336 -0.165806 -1.06831
0.0540128 -0.165267 -1.06835
0.0536086 -0.155304 -1.0691
0.052589 -0.154847 -1.06914
0.0530355 -0.165882 -1.0693
0.0536105 -0.15538 -1.0701
0.0525909 -0.154922 -1.07014
0.0530567 -0.166418 -1.06976
0.0530779 -0.166954 -1.07023
0.054057 -0.166415 -1.07026
0.0526332 -0.155994 -1.07106
0.0526121 -0.155458 -1.0706
0.0540589 -0.166491 -1.07126
0.0530797 -0.16703 -1.07122
0.0536547 -0.156528 -1.07202
0.0526351 -0.15607 -1.07206
0.0540608 -0.166567 -1.07226
0.0530816 -0.167105 -1.07222
0.053697 -0.1576 -1.07294
0.0526774 -0.157142 -1.07298
0.0526563 -0.156606 -1.07252
0.0540627 -0.166643 -1.07326
0.0530835 -0.167181 -1.07322
0.0527198 -0.158214 -1.0739
0.0526986 -0.157678 -1.07344
0.0540646 -0.166718 -1.07425
0.0530854 -0.167257 -1.07421
0.0527621 -0.159286 -1.07482
0.0527409 -0.15875 -1.07436
0.0540665 -0.166794 -1.07525
0.0530873 -0.167333 -1.07521
0.0528044 -0.160359 -1.07574
0.0527832 -0.159823 -1.07528
0.0540683 -0.16687 -1.07625
0.0530892 -0.167408 -1.07621
0.0538662 -0.161888 -1.07663
0.0528467 -0.161431 -1.07666
0.0528255 -0.160895 -1.0762
0.0540702 -0.166946 -1.07724
0.0530911 -0.167484 -1.0772
0.0540298 -0.165949 -1.07732
0.0539086 -0.16296 -1.07755
0.052889 -0.162503 -1.07758
0.0528679 -0.161967 -1.07712
0.0530719 -0.167024 -1.07774
0.0530526 -0.166564 -1.07828
0.0540317 -0.166025 -1.07832
0.0539913 -0.165029 -1.07839
0.0529718 -0.164571 -1.07843
0.0529506 -0.164035 -1.07797
0.0529102 -0.163039 -1.07804
0.0530333 -0.166103 -1.07881
0.0529929 -0.165107 -1.07889
0.0517987 -0.159836 -1.06174
0.0517583 -0.15884 -1.06182
0.0508408 -0.160911 -1.06216
0.0508619 -0.161447 -1.06262
0.0508003 -0.159915 -1.06224
0.0507599 -0.158918 -1.06232
0.0507195 -0.157922 -1.06239
0.0506791 -0.156926 -1.06247
0.0506598 -0.156466 -1.063
0.0508831 -0.161983 -1.06309
0.0509042 -0.162519 -1.06355
0.0506406 -0.156005 -1.06354
0.0506213 -0.155545 -1.06408
0.0509061 -0.162595 -1.06454
0.0516023 -0.155082 -1.06511
0.050602 -0.155085 -1.06461
0.0505828 -0.154624 -1.06515
0.0509273 -0.163131 -1.065
0.0509485 -0.163667 -1.06546
0.0505847 -0.1547 -1.06615
0.0509696 -0.164203 -1.06593
0.0509908 -0.164739 -1.06639
0.0519699 -0.1642 -1.06642
0.0515657 -0.154237 -1.06718
0.0505654 -0.15424 -1.06668
0.0505461 -0.15378 -1.06722
0.0509927 -0.164815 -1.06738
0.0515676 -0.154313 -1.06818
0.050548 -0.153855 -1.06822
0.0510138 -0.165351 -1.06784
0.051035 -0.165887 -1.0683
0.0515695 -0.154389 -1.06918
0.0505499 -0.153931 -1.06921
0.0510561 -0.166423 -1.06876
0.0510773 -0.166959 -1.06923
0.0520564 -0.16642 -1.06926
0.0505923 -0.155003 -1.07013
0.0505711 -0.154467 -1.06967
0.0510792 -0.167035 -1.07022
0.0516137 -0.155537 -1.0711
0.0505942 -0.155079 -1.07113
0.0511004 -0.167571 -1.07068
0.0511215 -0.168107 -1.07114
0.0521006 -0.167568 -1.07118
0.0506365 -0.156151 -1.07205
0.0506153 -0.155615 -1.07159
0.0521025 -0.167644 -1.07218
0.0511234 -0.168183 -1.07214
0.0516579 -0.156685 -1.07301
0.0506384 -0.156227 -1.07305
0.0521044 -0.16772 -1.07318
0.0511253 -0.168258 -1.07314
0.0517002 -0.157757 -1.07394
0.0506807 -0.157299 -1.07397
0.0506595 -0.156763 -1.07351
0.0521063 -0.167796 -1.07417
0.0511272 -0.168334 -1.07414
0.0517425 -0.158829 -1.07486
0.050723 -0.158371 -1.07489
0.0507018 -0.157835 -1.07443
0.0521082 -0.167871 -1.07517
0.0511291 -0.16841 -1.07513
0.0508057 -0.160439 -1.07574
0.0507846 -0.159903 -1.07528
0.0507442 -0.158907 -1.07535
0.0521101 -0.167947 -1.07617
0.051131 -0.168486 -1.07613
0.050848 -0.161512 -1.07666
0.0508269 -0.160975 -1.0762
0.052112 -0.168023 -1.07717
0.0511329 -0.168561 -1.07713
0.0509308 -0.16358 -1.07751
0.0509096 -0.163044 -1.07705
0.0519099 -0.163041 -1.07754
0.0508692 -0.162048 -1.07712
0.0521139 -0.168099 -1.07816
0.0511348 -0.168637 -1.07812
0.0520735 -0.167102 -1.07824
0.0509731 -0.164652 -1.07843
0.0509519 -0.164116 -1.07797
0.0511155 -0.168177 -1.07866
0.0510963 -0.167717 -1.0792
0.0520754 -0.167178 -1.07924
0.0510347 -0.166184 -1.07881
0.0510558 -0.16672 -1.07927
0.0509943 -0.165188 -1.07889
0.051077 -0.167256 -1.07973
0.0488421 -0.160992 -1.06216
0.0488633 -0.161528 -1.06262
0.0488017 -0.159996 -1.06224
0.0487613 -0.158999 -1.06231
0.0487209 -0.158003 -1.06239
0.0486804 -0.157007 -1.06246
0.0486612 -0.156546 -1.063
0.0488844 -0.162064 -1.06308
0.0489056 -0.1626 -1.06354
0.0486419 -0.156086 -1.06354
0.0486226 -0.155626 -1.06407
0.0489267 -0.163136 -1.064
0.0489479 -0.163672 -1.06446
0.049927 -0.163134 -1.0645
0.0486034 -0.155166 -1.06461
0.0485841 -0.154705 -1.06515
0.0489691 -0.164208 -1.06493
0.0489902 -0.164744 -1.06539
0.0499693 -0.164206 -1.06543
0.0495651 -0.154243 -1.06618
0.0485649 -0.154245 -1.06568
0.0485456 -0.153785 -1.06622
0.0490114 -0.16528 -1.06585
0.0490325 -0.165816 -1.06631
0.0500117 -0.165278 -1.06635
0.0485475 -0.153861 -1.06722
0.0500135 -0.165353 -1.06734
0.0490344 -0.165892 -1.0673
0.0485494 -0.153936 -1.06821
0.0490556 -0.166428 -1.06777
0.0490767 -0.166964 -1.06823
0.0500559 -0.166426 -1.06827
0.0485513 -0.154012 -1.06921
0.0490979 -0.1675 -1.06869
0.0491191 -0.168036 -1.06915
0.0500982 -0.167498 -1.06919
0.0485936 -0.155084 -1.07013
0.0485724 -0.154548 -1.06967
0.0491402 -0.168572 -1.06961
0.0491614 -0.169108 -1.07007
0.0501405 -0.16857 -1.07011
0.0501001 -0.167573 -1.07018
0.0485955 -0.15516 -1.07113
0.0501424 -0.168645 -1.0711
0.0491633 -0.169184 -1.07107
0.0496169 -0.155693 -1.07209
0.0485974 -0.155236 -1.07213
0.0501443 -0.168721 -1.0721
0.0491652 -0.16926 -1.07206
0.0486397 -0.156308 -1.07305
0.0486185 -0.155772 -1.07259
0.0491863 -0.169796 -1.07252
0.0492075 -0.170332 -1.07298
0.0501866 -0.169793 -1.07302
0.0501462 -0.168797 -1.0731
0.048682 -0.15738 -1.07397
0.0486609 -0.156844 -1.07351
0.0501885 -0.169869 -1.07402
0.0492094 -0.170408 -1.07398
0.0501481 -0.168873 -1.0741
0.0487243 -0.158452 -1.07489
0.0487032 -0.157916 -1.07443
0.0501904 -0.169945 -1.07502
0.0492113 -0.170483 -1.07498
0.05015 -0.168948 -1.07509
0.0488071 -0.16052 -1.07574
0.0487859 -0.159984 -1.07528
0.0487455 -0.158988 -1.07535
0.0501923 -0.170021 -1.07601
0.0492132 -0.170559 -1.07598
0.0501519 -0.169024 -1.07609
0.0488898 -0.162589 -1.07658
0.0488687 -0.162053 -1.07612
0.0498689 -0.16205 -1.07662
0.0488282 -0.161056 -1.0762
0.0501942 -0.170096 -1.07701
0.0492151 -0.170635 -1.07697
0.0501538 -0.1691 -1.07709
0.0489321 -0.163661 -1.0775
0.048911 -0.163125 -1.07704
0.0501961 -0.170172 -1.07801
0.049217 -0.170711 -1.07797
0.0501557 -0.169176 -1.07808
0.0489744 -0.164733 -1.07842
0.0489533 -0.164197 -1.07796
0.0491977 -0.17025 -1.07851
0.0491784 -0.16979 -1.07904
0.0501576 -0.169252 -1.07908
0.0501171 -0.168255 -1.07916
0.0500363 -0.166263 -1.07931
0.0490168 -0.165805 -1.07935
0.0489956 -0.165269 -1.07889
0.0491592 -0.16933 -1.07958
0.0491188 -0.168334 -1.07966
0.0490783 -0.167337 -1.07973
0.0490379 -0.166341 -1.07981
0.0494573 -0.17691 -1.08703
0.0494784 -0.177446 -1.08749
0.0504576 -0.176908 -1.08753
0.0504171 -0.175911 -1.0876
0.0494169 -0.175914 -1.0871
0.0503767 -0.174915 -1.08768
0.0493764 -0.174918 -1.08718
0.0503363 -0.173919 -1.08775
0.049336 -0.173921 -1.08725
0.0493168 -0.173461 -1.08779
0.0494996 -0.177982 -1.08795
0.0495208 -0.178518 -1.08841
0.0504999 -0.17798 -1.08845
0.0504595 -0.176983 -1.08852
0.050419 -0.175987 -1.0886
0.0503786 -0.174991 -1.08867
0.0503382 -0.173994 -1.08875
0.0493187 -0.173537 -1.08879
0.0495419 -0.179054 -1.08887
0.0495631 -0.17959 -1.08933
0.0505422 -0.179052 -1.08937
0.0505018 -0.178055 -1.08944
0.0504614 -0.177059 -1.08952
0.0504209 -0.176063 -1.0896
0.0493802 -0.175069 -1.08917
0.0494014 -0.175605 -1.08963
0.0493398 -0.174073 -1.08925
0.0505441 -0.179127 -1.09037
0.049565 -0.179666 -1.09033
0.0505037 -0.178131 -1.09044
0.0504633 -0.177135 -1.09052
0.0494226 -0.176141 -1.09009
0.0494437 -0.176677 -1.09055
0.0495457 -0.179206 -1.09086
0.0495053 -0.17821 -1.09094
0.0494649 -0.177213 -1.09101
0.0468435 -0.161073 -1.06216
0.0468646 -0.161609 -1.06262
0.046803 -0.160077 -1.06224
0.0467626 -0.15908 -1.06231
0.0467222 -0.158084 -1.06239
0.0466818 -0.157088 -1.06246
0.0476416 -0.156089 -1.06304
0.0466414 -0.156091 -1.06254
0.0466221 -0.155631 -1.06307
0.0469262 -0.163141 -1.063
0.0469473 -0.163677 -1.06347
0.0479265 -0.163139 -1.0635
0.0468858 -0.162145 -1.06308
0.0476031 -0.155168 -1.06411
0.0466028 -0.155171 -1.06361
0.0465836 -0.154711 -1.06415
0.0469685 -0.164213 -1.06393
0.0469897 -0.164749 -1.06439
0.0479688 -0.164211 -1.06443
0.0475646 -0.154248 -1.06518
0.0465643 -0.15425 -1.06468
0.046545 -0.15379 -1.06522
0.0470108 -0.165285 -1.06485
0.047032 -0.165821 -1.06531
0.0480111 -0.165283 -1.06535
0.0475261 -0.153327 -1.06626
0.0465258 -0.15333 -1.06576
0.0465065 -0.152869 -1.06629
0.0470531 -0.166357 -1.06577
0.0470743 -0.166894 -1.06623
0.0480534 -0.166355 -1.06627
0.047528 -0.153403 -1.06725
0.0465084 -0.152945 -1.06729
0.0470955 -0.16743 -1.06669
0.0471166 -0.167966 -1.06715
0.0480957 -0.167427 -1.06719
0.0480553 -0.166431 -1.06727
0.0465507 -0.154017 -1.06821
0.0465296 -0.153481 -1.06775
0.0471378 -0.168502 -1.06761
0.0471589 -0.169038 -1.06807
0.048138 -0.168499 -1.06811
0.0480976 -0.167503 -1.06819
0.0465526 -0.154093 -1.06921
0.0471801 -0.169574 -1.06853
0.0472012 -0.17011 -1.06899
0.0481804 -0.169571 -1.06903
0.0481399 -0.168575 -1.06911
0.0475741 -0.154627 -1.07017
0.0465545 -0.154169 -1.07021
0.0472224 -0.170646 -1.06945
0.0472436 -0.171182 -1.06991
0.0482227 -0.170643 -1.06995
0.0481823 -0.169647 -1.07003
0.0465968 -0.155241 -1.07113
0.0465757 -0.154705 -1.07067
0.0482246 -0.170719 -1.07095
0.0472455 -0.171258 -1.07091
0.0481842 -0.169723 -1.07103
0.0465987 -0.155317 -1.07212
0.0482265 -0.170795 -1.07195
0.0472474 -0.171333 -1.07191
0.0481861 -0.169798 -1.07202
0.046641 -0.156389 -1.07305
0.0466199 -0.155853 -1.07259
0.0472685 -0.171869 -1.07237
0.0472897 -0.172405 -1.07283
0.0482688 -0.171867 -1.07287
0.0482284 -0.17087 -1.07295
0.0466834 -0.157461 -1.07397
0.0466622 -0.156925 -1.07351
0.0482707 -0.171943 -1.07387
0.0472916 -0.172481 -1.07383
0.0482303 -0.170946 -1.07394
0.0467661 -0.159529 -1.07481
0.0467449 -0.158993 -1.07435
0.0477452 -0.158991 -1.07485
0.0467045 -0.157997 -1.07443
0.0482726 -0.172018 -1.07486
0.0472935 -0.172557 -1.07482
0.0482322 -0.171022 -1.07494
0.0468084 -0.160601 -1.07573
0.0467873 -0.160065 -1.07527
0.0482745 -0.172094 -1.07586
0.0472954 -0.172633 -1.07582
0.0482341 -0.171098 -1.07594
0.0468912 -0.16267 -1.07658
0.04687 -0.162134 -1.07612
0.0468296 -0.161137 -1.07619
0.0482764 -0.17217 -1.07686
0.0472973 -0.172708 -1.07682
0.048236 -0.171174 -1.07693
0.0469335 -0.163742 -1.0775
0.0469123 -0.163206 -1.07704
0.047278 -0.172248 -1.07736
0.0472587 -0.171788 -1.07789
0.0482378 -0.171249 -1.07793
0.0469758 -0.164814 -1.07842
0.0469546 -0.164278 -1.07796
0.0482397 -0.171325 -1.07893
0.0472606 -0.171864 -1.07889
0.0481993 -0.170329 -1.079
0.0470585 -0.166882 -1.07927
0.0470374 -0.166346 -1.07881
0.0480376 -0.166344 -1.07931
0.0469969 -0.16535 -1.07888
0.0472414 -0.171403 -1.07943
0.0472221 -0.170943 -1.07996
0.0482012 -0.170405 -1.08
0.0481608 -0.169408 -1.08008
0.0481204 -0.168412 -1.08015
0.0471008 -0.167954 -1.08019
0.0470797 -0.167418 -1.07973
0.0472028 -0.170483 -1.0805
0.0471624 -0.169487 -1.08057
0.047122 -0.16849 -1.08065
0.0474163 -0.175919 -1.0861
0.0474375 -0.176455 -1.08656
0.0484166 -0.175916 -1.0866
0.0483762 -0.17492 -1.08668
0.0473759 -0.174923 -1.08618
0.0483358 -0.173924 -1.08675
0.0473355 -0.173926 -1.08625
0.0482953 -0.172927 -1.08683
0.0472951 -0.17293 -1.08633
0.0482549 -0.171931 -1.08691
0.0472546 -0.171934 -1.08641
0.0482145 -0.170935 -1.08698
0.0472142 -0.170937 -1.08648
0.0481741 -0.169939 -1.08706
0.0471738 -0.169941 -1.08656
0.0471545 -0.169481 -1.08709
0.0475395 -0.178984 -1.08687
0.0475606 -0.17952 -1.08733
0.0485397 -0.178981 -1.08737
0.0484993 -0.177985 -1.08745
0.0474991 -0.177987 -1.08695
0.0474586 -0.176991 -1.08702
0.0482972 -0.173003 -1.08783
0.0482568 -0.172007 -1.0879
0.0482164 -0.171011 -1.08798
0.0471757 -0.170017 -1.08755
0.0471968 -0.170553 -1.08801
0.0475818 -0.180056 -1.08779
0.0476029 -0.180592 -1.08825
0.0485821 -0.180053 -1.08829
0.0485416 -0.179057 -1.08837
0.0482991 -0.173079 -1.08882
0.0482587 -0.172083 -1.0889
0.047218 -0.171089 -1.08848
0.0472392 -0.171625 -1.08894
0.0476241 -0.181128 -1.08871
0.0476453 -0.181664 -1.08918
0.0486244 -0.181125 -1.08921
0.048584 -0.180129 -1.08929
0.0483819 -0.175147 -1.08967
0.0483414 -0.174151 -1.08974
0.0473219 -0.173693 -1.08978
0.0473007 -0.173157 -1.08932
0.0472603 -0.172161 -1.0894
0.0476664 -0.1822 -1.08964
0.0476876 -0.182736 -1.0901
0.0486667 -0.182197 -1.09014
0.0486263 -0.181201 -1.09021
0.0485859 -0.180205 -1.09029
0.0484242 -0.176219 -1.09059
0.0474046 -0.175762 -1.09063
0.0473835 -0.175226 -1.09017
0.0473431 -0.174229 -1.09024
0.0486686 -0.182273 -1.09113
0.0476895 -0.182812 -1.09109
0.0486282 -0.181277 -1.09121
0.0485878 -0.18028 -1.09128
0.0485473 -0.179284 -1.09136
0.0475278 -0.178826 -1.0914
0.0475066 -0.17829 -1.09094
0.0474662 -0.177294 -1.09101
0.0474258 -0.176298 -1.09109
0.0476702 -0.182351 -1.09163
0.0476509 -0.181891 -1.09217
0.0486301 -0.181353 -1.09221
0.0475894 -0.180359 -1.09178
0.0476105 -0.180895 -1.09224
0.047549 -0.179362 -1.09186
0.0476317 -0.181431 -1.0927
0.0448025 -0.160082 -1.06124
0.0448236 -0.160618 -1.0617
0.0458028 -0.160079 -1.06174
0.0457623 -0.159083 -1.06181
0.0447621 -0.159085 -1.06131
0.0457219 -0.158087 -1.06189
0.0447216 -0.158089 -1.06139
0.0456815 -0.15709 -1.06196
0.0446812 -0.157093 -1.06146
0.0456411 -0.156094 -1.06204
0.0446408 -0.156096 -1.06154
0.0456007 -0.155098 -1.06211
0.0446004 -0.1551 -1.06161
0.0445811 -0.15464 -1.06215
0.0448852 -0.16215 -1.06208
0.0449064 -0.162686 -1.06254
0.0458855 -0.162148 -1.06258
0.0448448 -0.161154 -1.06216
0.0456026 -0.155173 -1.06311
0.0445619 -0.15418 -1.06269
0.0455621 -0.154177 -1.06319
0.0445426 -0.153719 -1.06322
0.0449275 -0.163222 -1.063
0.0449487 -0.163758 -1.06346
0.045564 -0.154253 -1.06418
0.0445233 -0.153259 -1.06376
0.0455236 -0.153257 -1.06426
0.0445041 -0.152799 -1.0643
0.0450103 -0.165291 -1.06385
0.0450314 -0.165827 -1.06431
0.0460105 -0.165288 -1.06435
0.0449698 -0.164294 -1.06392
0.0455255 -0.153332 -1.06526
0.0444848 -0.152339 -1.06483
0.0454851 -0.152336 -1.06533
0.0444655 -0.151878 -1.06537
0.0450526 -0.166363 -1.06477
0.0450737 -0.166899 -1.06523
0.0460529 -0.16636 -1.06527
0.045487 -0.152412 -1.06633
0.0444674 -0.151954 -1.06637
0.0451353 -0.168431 -1.06561
0.0451565 -0.168967 -1.06608
0.0461356 -0.168428 -1.06611
0.0460952 -0.167432 -1.06619
0.0450949 -0.167435 -1.06569
0.0454889 -0.152488 -1.06733
0.0444693 -0.15203 -1.06736
0.0452181 -0.170499 -1.06646
0.0452392 -0.171035 -1.06692
0.0462183 -0.170497 -1.06696
0.0461779 -0.1695 -1.06704
0.0451776 -0.169503 -1.06654
0.0461375 -0.168504 -1.06711
0.0455312 -0.15356 -1.06825
0.0445116 -0.153102 -1.06829
0.0444905 -0.152566 -1.06782
0.0454221 -0.175557 -1.06708
0.0454432 -0.176093 -1.06754
0.0464223 -0.175554 -1.06758
0.0463819 -0.174558 -1.06765
0.0453816 -0.17456 -1.06715
0.0463415 -0.173561 -1.06773
0.0453412 -0.173564 -1.06723
0.0463011 -0.172565 -1.06781
0.0453008 -0.172568 -1.06731
0.0462607 -0.171569 -1.06788
0.0452604 -0.171571 -1.06738
0.0462202 -0.170573 -1.06796
0.0461798 -0.169576 -1.06803
0.0455331 -0.153635 -1.06925
0.0445135 -0.153178 -1.06928
0.0455048 -0.177625 -1.06792
0.045526 -0.178161 -1.06838
0.0465051 -0.177622 -1.06842
0.0464646 -0.176626 -1.0685
0.0454644 -0.176629 -1.068
0.0464242 -0.17563 -1.06858
0.0463838 -0.174634 -1.06865
0.0463434 -0.173637 -1.06873
0.046303 -0.172641 -1.0688
0.0462625 -0.171645 -1.06888
0.0462221 -0.170648 -1.06895
0.0445559 -0.15425 -1.0702
0.0445347 -0.153714 -1.06974
0.0455471 -0.178697 -1.06885
0.0455683 -0.179233 -1.06931
0.0465474 -0.178695 -1.06935
0.046507 -0.177698 -1.06942
0.0464665 -0.176702 -1.0695
0.0464261 -0.175706 -1.06957
0.0463857 -0.174709 -1.06965
0.0463453 -0.173713 -1.06972
0.0463049 -0.172717 -1.0698
0.0462644 -0.17172 -1.06988
0.0445982 -0.155322 -1.07113
0.044577 -0.154786 -1.07066
0.045549 -0.178773 -1.06984
0.0455086 -0.177777 -1.06992
0.0454682 -0.17678 -1.06999
0.0454489 -0.17632 -1.07053
0.046428 -0.175781 -1.07057
0.0463876 -0.174785 -1.07065
0.0463472 -0.173789 -1.07072
0.0463068 -0.172792 -1.0708
0.0462663 -0.171796 -1.07087
0.0446001 -0.155398 -1.07212
0.0454296 -0.17586 -1.07107
0.0454104 -0.175399 -1.0716
0.0463895 -0.174861 -1.07164
0.0463491 -0.173865 -1.07172
0.0463087 -0.172868 -1.07179
0.0462682 -0.171872 -1.07187
0.0446424 -0.15647 -1.07304
0.0446212 -0.155934 -1.07258
0.0463914 -0.174937 -1.07264
0.0454123 -0.175475 -1.0726
0.046351 -0.17394 -1.07272
0.0463106 -0.172944 -1.07279
0.0446847 -0.157542 -1.07396
0.0446635 -0.157006 -1.0735
0.045393 -0.175015 -1.07314
0.0453737 -0.174555 -1.07367
0.0463529 -0.174016 -1.07371
0.0463124 -0.17302 -1.07379
0.0447674 -0.15961 -1.07481
0.0447463 -0.159074 -1.07435
0.0447059 -0.158078 -1.07443
0.0442208 -0.146122 -1.07533
0.044242 -0.146658 -1.0758
0.0452211 -0.14612 -1.07583
0.0451807 -0.145123 -1.07591
0.0441804 -0.145126 -1.07541
0.0441611 -0.144666 -1.07595
0.0463548 -0.174092 -1.07471
0.0453756 -0.17463 -1.07467
0.0463143 -0.173096 -1.07479
0.0448098 -0.160682 -1.07573
0.0447886 -0.160146 -1.07527
0.0442631 -0.147194 -1.07626
0.0442843 -0.14773 -1.07672
0.0452634 -0.147192 -1.07676
0.045223 -0.146195 -1.07683
0.0451826 -0.145199 -1.07691
0.0441419 -0.144205 -1.07648
0.0451422 -0.144203 -1.07698
0.0441226 -0.143745 -1.07702
0.0463567 -0.174168 -1.07571
0.0453775 -0.174706 -1.07567
0.0463162 -0.173171 -1.07578
0.0448925 -0.162751 -1.07658
0.0448713 -0.162215 -1.07612
0.0448309 -0.161218 -1.07619
0.044265 -0.14727 -1.07725
0.0442458 -0.14681 -1.07779
0.0452249 -0.146271 -1.07783
0.0451845 -0.145275 -1.0779
0.045144 -0.144278 -1.07798
0.0441033 -0.143285 -1.07756
0.0451036 -0.143282 -1.07806
0.0440841 -0.142824 -1.07809
0.0463586 -0.174243 -1.0767
0.0453794 -0.174782 -1.07667
0.0463181 -0.173247 -1.07678
0.0449348 -0.163823 -1.0775
0.0449137 -0.163287 -1.07704
0.0452268 -0.146347 -1.07883
0.0442477 -0.146885 -1.07879
0.0451864 -0.145351 -1.0789
0.0451459 -0.144354 -1.07898
0.0451055 -0.143358 -1.07905
0.0440648 -0.142364 -1.07863
0.0450651 -0.142362 -1.07913
0.0440456 -0.141904 -1.07917
0.0453602 -0.174322 -1.0772
0.0453409 -0.173861 -1.07774
0.04632 -0.173323 -1.07778
0.0462796 -0.172327 -1.07785
0.0450175 -0.165891 -1.07834
0.0449964 -0.165355 -1.07788
0.0459967 -0.165352 -1.07838
0.044956 -0.164359 -1.07796
0.0442284 -0.146425 -1.07932
0.0442091 -0.145965 -1.07986
0.0451883 -0.145426 -1.0799
0.0451478 -0.14443 -1.07997
0.0451074 -0.143434 -1.08005
0.045067 -0.142437 -1.08013
0.0440475 -0.14198 -1.08016
0.0463219 -0.173399 -1.07877
0.0453428 -0.173937 -1.07874
0.0462815 -0.172402 -1.07885
0.0450599 -0.166963 -1.07927
0.0450387 -0.166427 -1.0788
0.0451902 -0.145502 -1.0809
0.044211 -0.146041 -1.08086
0.0451497 -0.144506 -1.08097
0.0451093 -0.143509 -1.08105
0.0450689 -0.142513 -1.08112
0.0440282 -0.141519 -1.0807
0.0450285 -0.141517 -1.0812
0.0440089 -0.141059 -1.08124
0.0453235 -0.173477 -1.07927
0.0453043 -0.173017 -1.07981
0.0462834 -0.172478 -1.07985
0.046243 -0.171482 -1.07992
0.0451022 -0.168035 -1.08019
0.045081 -0.167499 -1.07973
0.0441918 -0.14558 -1.08139
0.0441725 -0.14512 -1.08193
0.0451516 -0.144582 -1.08197
0.0451112 -0.143585 -1.08204
0.0450708 -0.142589 -1.08212
0.0450304 -0.141593 -1.0822
0.0440108 -0.141135 -1.08223
0.0462853 -0.172554 -1.08084
0.0453062 -0.173092 -1.08081
0.0462449 -0.171558 -1.08092
0.0462045 -0.170561 -1.081
0.046164 -0.169565 -1.08107
0.0461236 -0.168569 -1.08115
0.0451041 -0.168111 -1.08118
0.0441532 -0.14466 -1.08247
0.044134 -0.1442 -1.083
0.0451131 -0.143661 -1.08304
0.0450727 -0.142665 -1.08312
0.044032 -0.141671 -1.08269
0.0440531 -0.142207 -1.08315
0.0452869 -0.172632 -1.08134
0.0452465 -0.171636 -1.08142
0.0452272 -0.171176 -1.08195
0.0462064 -0.170637 -1.08199
0.0451657 -0.169643 -1.08157
0.0451868 -0.170179 -1.08203
0.0451252 -0.168647 -1.08164
0.0441147 -0.143739 -1.08354
0.0440743 -0.142743 -1.08361
0.045208 -0.170715 -1.08249
0.0452926 -0.172859 -1.08433
0.0453138 -0.173395 -1.08479
0.0462929 -0.172857 -1.08483
0.0462525 -0.171861 -1.08491
0.0452522 -0.171863 -1.08441
0.046212 -0.170864 -1.08498
0.0452118 -0.170867 -1.08448
0.0451925 -0.170407 -1.08502
0.0454562 -0.17692 -1.08503
0.0454773 -0.177456 -1.08549
0.0464565 -0.176918 -1.08553
0.046416 -0.175922 -1.0856