<VTKFile type="UnstructuredGrid" version="0.1" byte_order="BigEndian">
  <UnstructuredGrid>
    <Piece NumberOfPoints="14130" NumberOfCells="28260">
      <PointData>
        <DataArray type="Float64" Name="position" NumberOfComponents="3" format="ascii">
0.0394681 0.242179 -0.26383
0.0394789 0.241687 -0.264338
0.0404727 0.242196 -0.264317
0.0394702 0.242687 -0.264322
0.0394897 0.241196 -0.264846
0.0395006 0.240704 -0.265354
0.0404943 0.241212 -0.265333
0.0404856 0.242212 -0.265317
0.0394723 0.243195 -0.264814
0.0404769 0.243212 -0.265301
0.0394744 0.243703 -0.265306
0.0405072 0.241228 -0.266332
0.0395135 0.24072 -0.266354
0.0404985 0.242228 -0.266316
0.0404898 0.243228 -0.2663
0.0394873 0.243719 -0.266306
0.0405202 0.241244 -0.267332
0.0395264 0.240736 -0.267353
0.0405114 0.242244 -0.267316
0.0405027 0.243244 -0.2673
0.0395002 0.243735 -0.267305
0.0405331 0.241261 -0.268332
0.0395393 0.240752 -0.268353
0.0405244 0.24226 -0.268316
0.0405156 0.24326 -0.2683
0.0395132 0.243752 -0.268305
0.0395414 0.24126 -0.268845
0.0395435 0.241768 -0.269337
0.0405373 0.242276 -0.269316
0.039524 0.24326 -0.268813
0.0395348 0.242768 -0.269321
0.0395456 0.242276 -0.269829
0.0374676 0.241146 -0.262872
0.0374785 0.240654 -0.26338
0.0384722 0.241163 -0.263359
0.0384635 0.242163 -0.263343
0.0374589 0.242146 -0.262856
0.037461 0.242654 -0.263348
0.0374893 0.240163 -0.263888
0.0375001 0.239671 -0.264396
0.0384939 0.240179 -0.264375
0.0384851 0.241179 -0.264359
0.0384677 0.243179 -0.264327
0.0374631 0.243162 -0.26384
0.0374652 0.24367 -0.264332
0.0385068 0.240195 -0.265375
0.037513 0.239687 -0.265396
0.0374781 0.243686 -0.265332
0.0385197 0.240211 -0.266375
0.0375259 0.239703 -0.266396
0.0374911 0.243702 -0.266332
0.0385326 0.240228 -0.267374
0.0375389 0.239719 -0.267395
0.037504 0.243718 -0.267331
0.0385456 0.240244 -0.268374
0.0375518 0.239735 -0.268395
0.0375169 0.243735 -0.268331
0.0385585 0.24026 -0.269374
0.0375647 0.239751 -0.269395
0.0385498 0.24126 -0.269358
0.0385323 0.243259 -0.269326
0.0375298 0.243751 -0.269331
0.0385714 0.240276 -0.270374
0.0375776 0.239767 -0.270395
0.0385627 0.241276 -0.270358
0.038554 0.242276 -0.270342
0.0385452 0.243275 -0.270326
0.0375427 0.243767 -0.270331
0.0375797 0.240275 -0.270887
0.0375818 0.240783 -0.271379
0.0385756 0.241292 -0.271358
0.0385669 0.242292 -0.271341
0.0375536 0.243275 -0.270839
0.0375644 0.242783 -0.271347
0.0375839 0.241291 -0.27187
0.0375752 0.242291 -0.271854
0.0354801 0.24013 -0.262914
0.0354909 0.239638 -0.263422
0.0364847 0.240146 -0.263401
0.0354714 0.241129 -0.262898
0.0354735 0.241637 -0.26339
0.0364672 0.242146 -0.263369
0.0355038 0.239654 -0.264422
0.0354756 0.242145 -0.263882
0.0354777 0.242653 -0.264374
0.0364714 0.243162 -0.264353
0.0355147 0.239162 -0.26493
0.0355255 0.23867 -0.265438
0.0365193 0.239178 -0.265417
0.0364844 0.243178 -0.265353
0.0354906 0.242669 -0.265374
0.0365322 0.239195 -0.266417
0.0355384 0.238686 -0.266438
0.0364973 0.243194 -0.266353
0.0355035 0.242686 -0.266374
0.0355492 0.238194 -0.266946
0.0355601 0.237702 -0.267453
0.0365538 0.238211 -0.267432
0.0365451 0.239211 -0.267416
0.0365102 0.24321 -0.267352
0.0355164 0.242702 -0.267373
0.0365668 0.238227 -0.268432
0.035573 0.237719 -0.268453
0.036558 0.239227 -0.268416
0.0355381 0.241718 -0.268389
0.0355273 0.24221 -0.267881
0.0365319 0.242226 -0.268368
0.0365231 0.243226 -0.268352
0.0365797 0.238243 -0.269432
0.0355859 0.237735 -0.269453
0.0365709 0.239243 -0.269416
0.0365448 0.242242 -0.269368
0.035551 0.241734 -0.269389
0.036536 0.243242 -0.269352
0.0365926 0.238259 -0.270432
0.0355988 0.237751 -0.270453
0.0365839 0.239259 -0.270416
0.0365577 0.242259 -0.270368
0.0355639 0.24175 -0.270389
0.036549 0.243258 -0.270352
0.0356009 0.238259 -0.270945
0.035603 0.238767 -0.271437
0.0365968 0.239275 -0.271416
0.0365881 0.240275 -0.2714
0.0355856 0.240766 -0.271405
0.0355748 0.241258 -0.270897
0.0365793 0.241275 -0.271384
0.0365706 0.242275 -0.271368
0.0356051 0.239275 -0.271929
0.0355964 0.240275 -0.271913
0.0334926 0.239113 -0.262957
0.0335034 0.238621 -0.263464
0.0344972 0.239129 -0.263443
0.0344884 0.240129 -0.263427
0.0334947 0.239621 -0.263448
0.0344797 0.241129 -0.263411
0.0335142 0.238129 -0.263972
0.033525 0.237637 -0.26448
0.0345188 0.238146 -0.264459
0.0345101 0.239145 -0.264443
0.0334968 0.240129 -0.26394
0.0344926 0.241145 -0.264411
0.0334989 0.240637 -0.264432
0.0344839 0.242145 -0.264395
0.0345317 0.238162 -0.265459
0.033538 0.237653 -0.26548
0.0345056 0.241161 -0.265411
0.0335118 0.240653 -0.265432
0.0344968 0.242161 -0.265395
0.0335488 0.237161 -0.265988
0.0335596 0.23667 -0.266496
0.0345534 0.237178 -0.266475
0.0345447 0.238178 -0.266459
0.0345185 0.241177 -0.266411
0.0335247 0.240669 -0.266432
0.0345098 0.242177 -0.266395
0.0345663 0.237194 -0.267475
0.0335725 0.236686 -0.267496
0.0345314 0.241193 -0.267411
0.0335376 0.240685 -0.267432
0.0345227 0.242193 -0.267394
0.0345792 0.23721 -0.268474
0.0335854 0.236702 -0.268495
0.0345443 0.241209 -0.26841
0.0335506 0.240701 -0.268431
0.0345921 0.237226 -0.269474
0.0335984 0.236718 -0.269495
0.0345572 0.241226 -0.26941
0.0335635 0.240717 -0.269431
0.0346051 0.237242 -0.270474
0.0336113 0.236734 -0.270495
0.0345702 0.241242 -0.27041
0.0335764 0.240733 -0.270431
0.0336134 0.237242 -0.270987
0.0336155 0.23775 -0.271479
0.0346093 0.238258 -0.271458
0.0335893 0.240749 -0.271431
0.0336176 0.238258 -0.271971
0.0336197 0.238766 -0.272462
0.0346135 0.239274 -0.272441
0.033611 0.239766 -0.272446
0.0336001 0.240258 -0.271939
0.0336218 0.239274 -0.272954
0.031505 0.238096 -0.262999
0.0315159 0.237604 -0.263506
0.0325096 0.238112 -0.263485
0.0325009 0.239112 -0.263469
0.0315071 0.238604 -0.26349
0.0315267 0.237112 -0.264014
0.0315375 0.23662 -0.264522
0.0325313 0.237129 -0.264501
0.0315201 0.23862 -0.26449
0.0325138 0.239128 -0.264469
0.0325051 0.240128 -0.264453
0.0315483 0.236128 -0.26503
0.0315592 0.235637 -0.265538
0.0325529 0.236145 -0.265517
0.0325442 0.237145 -0.265501
0.0315222 0.239128 -0.264982
0.032518 0.240144 -0.265453
0.0315243 0.239636 -0.265474
0.0325658 0.236161 -0.266517
0.0315721 0.235653 -0.266538
0.0325309 0.24016 -0.266453
0.0315372 0.239652 -0.266474
0.0325788 0.236177 -0.267517
0.031585 0.235669 -0.267538
0.0315393 0.24016 -0.266966
0.0315414 0.240668 -0.267458
0.0315958 0.235177 -0.268046
0.0316066 0.234685 -0.268553
0.0326004 0.235193 -0.268532
0.0325917 0.236193 -0.268516
0.0315543 0.240684 -0.268457
0.0326133 0.23521 -0.269532
0.0316196 0.234701 -0.269553
0.0326046 0.236209 -0.269516
0.0315672 0.2407 -0.269457
0.0326262 0.235226 -0.270532
0.0316325 0.234717 -0.270553
0.0326175 0.236226 -0.270516
0.0315801 0.240716 -0.270457
0.0316346 0.235225 -0.271045
0.0316367 0.235733 -0.271537
0.0326304 0.236242 -0.271516
0.0326217 0.237242 -0.2715
0.0316018 0.239733 -0.271473
0.031591 0.240224 -0.270965
0.0325955 0.240241 -0.271452
0.0326434 0.236258 -0.272516
0.0316496 0.235749 -0.272537
0.0326346 0.237258 -0.2725
0.0326259 0.238257 -0.272484
0.0316147 0.239749 -0.272473
0.0316517 0.236257 -0.273028
0.0316538 0.236765 -0.27352
0.0326476 0.237274 -0.273499
0.0326388 0.238274 -0.273483
0.0326301 0.239273 -0.273467
0.0316276 0.239765 -0.273472
0.0316559 0.237273 -0.274012
0.031658 0.237781 -0.274504
0.0326518 0.23829 -0.274483
0.0316384 0.239273 -0.27398
0.0316493 0.238781 -0.274488
0.0316601 0.238289 -0.274996
0.0305134 0.238095 -0.263512
0.0298096 0.2051 -0.264553
0.0298204 0.204609 -0.265061
0.0308142 0.205117 -0.26504
0.0308055 0.206117 -0.265024
0.0298009 0.2061 -0.264537
0.0307967 0.207117 -0.265008
0.0297922 0.2071 -0.264521
0.030788 0.208117 -0.264992
0.0297834 0.2081 -0.264505
0.0307793 0.209116 -0.264976
0.0297747 0.2091 -0.264489
0.0307706 0.210116 -0.26496
0.029766 0.2101 -0.264473
0.0307619 0.211116 -0.264943
0.0297573 0.211099 -0.264457
0.0307531 0.212116 -0.264927
0.0297485 0.212099 -0.264441
0.0307444 0.213116 -0.264911
0.0297398 0.213099 -0.264425
0.0307357 0.214116 -0.264895
0.0297311 0.214099 -0.264409
0.0297332 0.214607 -0.264901
0.0295391 0.236095 -0.264056
0.02955 0.235603 -0.264564
0.0305437 0.236112 -0.264543
0.0295304 0.237095 -0.26404
0.0305263 0.238112 -0.264511
0.0295325 0.237603 -0.264532
0.0298574 0.201117 -0.265616
0.0298683 0.200625 -0.266124
0.030862 0.201134 -0.266103
0.0308533 0.202134 -0.266087
0.0298487 0.202117 -0.2656
0.0308446 0.203133 -0.266071
0.02984 0.203117 -0.265584
0.0308358 0.204133 -0.266055
0.0298313 0.204117 -0.265568
0.0308271 0.205133 -0.266039
0.0308184 0.206133 -0.266023
0.0308097 0.207133 -0.266007
0.0308009 0.208133 -0.265991
0.0307922 0.209132 -0.265975
0.0307835 0.210132 -0.265959
0.0307748 0.211132 -0.265943
0.030766 0.212132 -0.265927
0.0307573 0.213132 -0.265911
0.029744 0.214115 -0.265408
0.0297548 0.213623 -0.265916
0.0295608 0.235112 -0.265072
0.0295716 0.23462 -0.26558
0.0305654 0.235128 -0.265559
0.0295346 0.238111 -0.265024
0.0295367 0.238619 -0.265516
0.0305305 0.239127 -0.265495
0.0298791 0.200134 -0.266632
0.0298899 0.199642 -0.26714
0.0308837 0.20015 -0.267119
0.0308749 0.20115 -0.267103
0.0308662 0.20215 -0.267087
0.0308575 0.20315 -0.267071
0.0308488 0.204149 -0.267055
0.03084 0.205149 -0.267039
0.0308313 0.206149 -0.267023
0.0308226 0.207149 -0.267007
0.0298093 0.208132 -0.266504
0.0298201 0.20764 -0.267012
0.0298006 0.209132 -0.266488
0.0297918 0.210132 -0.266472
0.0297831 0.211132 -0.266456
0.0297744 0.212132 -0.26644
0.0297657 0.213131 -0.266424
0.0305783 0.235144 -0.266559
0.0295845 0.234636 -0.26658
0.0295388 0.239127 -0.266008
0.0295409 0.239635 -0.2665
0.029892 0.20015 -0.267632
0.0298941 0.200658 -0.268124
0.0308879 0.201166 -0.268103
0.0308791 0.202166 -0.268087
0.0308704 0.203166 -0.268071
0.0308617 0.204166 -0.268055
0.030853 0.205165 -0.268039
0.0298396 0.206149 -0.267536
0.0298505 0.205657 -0.268044
0.0298309 0.207148 -0.26752
0.0295954 0.234144 -0.267088
0.0296062 0.233652 -0.267596
0.0306 0.234161 -0.267575
0.0305912 0.23516 -0.267559
0.0305476 0.24016 -0.267479
0.0295538 0.239651 -0.2675
0.0298962 0.201166 -0.268616
0.0298875 0.202165 -0.2686
0.0298787 0.203165 -0.268584
0.02987 0.204165 -0.268568
0.0298613 0.205165 -0.268552
0.0306129 0.234177 -0.268574
0.0296191 0.233668 -0.268596
0.0305605 0.240176 -0.268478
0.0295668 0.239667 -0.268499
0.0306258 0.234193 -0.269574
0.029632 0.233684 -0.269595
0.0305734 0.240192 -0.269478
0.0295797 0.239683 -0.269499
0.0306387 0.234209 -0.270574
0.0296449 0.2337 -0.270595
0.0305864 0.240208 -0.270478
0.0295926 0.239699 -0.270499
0.0306516 0.234225 -0.271574
0.0296579 0.233717 -0.271595
0.0306429 0.235225 -0.271558
0.0296055 0.239716 -0.271499
0.02966 0.234225 -0.272087
0.0296621 0.234733 -0.272579
0.0306558 0.235241 -0.272558
0.0296184 0.239732 -0.272499
0.0296642 0.235241 -0.273071
0.0296663 0.235748 -0.273562
0.03066 0.236257 -0.273541
0.0296401 0.238748 -0.273514
0.0296293 0.23924 -0.273007
0.0306339 0.239256 -0.273493
0.0296684 0.236256 -0.274054
0.0296596 0.237256 -0.274038
0.0296509 0.238256 -0.274022
0.0306555 0.238273 -0.274509
0.0278004 0.205067 -0.263579
0.0278113 0.204575 -0.264087
0.028805 0.205084 -0.264066
0.0287963 0.206084 -0.26405
0.0277917 0.206067 -0.263563
0.0287876 0.207084 -0.264034
0.027783 0.207067 -0.263547
0.0287788 0.208083 -0.264018
0.0277743 0.208067 -0.263531
0.0287701 0.209083 -0.264002
0.0277655 0.209067 -0.263515
0.0287614 0.210083 -0.263986
0.0277568 0.210066 -0.263499
0.0287527 0.211083 -0.26397
0.0277481 0.211066 -0.263483
0.028744 0.212083 -0.263954
0.0277394 0.212066 -0.263467
0.0287352 0.213083 -0.263938
0.0277306 0.213066 -0.263451
0.0287265 0.214082 -0.263922
0.0277219 0.214066 -0.263435
0.0287178 0.215082 -0.263906
0.0277132 0.215066 -0.263419
0.0277153 0.215574 -0.263911
0.0278221 0.204084 -0.264595
0.0278329 0.203592 -0.265103
0.0288267 0.2041 -0.265082
0.0287307 0.215098 -0.264906
0.0277282 0.21559 -0.264911
0.0275516 0.235078 -0.264099
0.0275624 0.234587 -0.264606
0.0285562 0.235095 -0.264585
0.0275429 0.236078 -0.264083
0.027545 0.236586 -0.264574
0.0285388 0.237095 -0.264553
0.0278699 0.2001 -0.265659
0.0278807 0.199609 -0.266166
0.0288745 0.200117 -0.266145
0.0278612 0.2011 -0.265643
0.0278524 0.2021 -0.265627
0.0278437 0.2031 -0.265611
0.0287523 0.214115 -0.265921
0.0277498 0.214606 -0.265926
0.027739 0.215098 -0.265418
0.0275733 0.234095 -0.265114
0.0275841 0.233603 -0.265622
0.0285779 0.234111 -0.265601
0.0275471 0.237094 -0.265066
0.0275492 0.237602 -0.265558
0.028543 0.238111 -0.265537
0.0278915 0.199117 -0.266674
0.0279024 0.198625 -0.267182
0.0288961 0.199133 -0.267161
0.0288176 0.208132 -0.267017
0.0288089 0.209132 -0.267001
0.0288002 0.210131 -0.266985
0.0287914 0.211131 -0.266969
0.0287827 0.212131 -0.266953
0.028774 0.213131 -0.266937
0.0277715 0.213622 -0.266942
0.0277607 0.214114 -0.266434
0.0275949 0.233111 -0.26613
0.0276057 0.232619 -0.266638
0.0285995 0.233128 -0.266617
0.0285908 0.234127 -0.266601
0.0275513 0.23811 -0.26605
0.0275534 0.238618 -0.266542
0.0285472 0.239127 -0.266521
0.0289091 0.199149 -0.268161
0.0279153 0.198641 -0.268182
0.0289003 0.200149 -0.268145
0.028848 0.206148 -0.268049
0.0288393 0.207148 -0.268033
0.0288305 0.208148 -0.268017
0.0288218 0.209148 -0.268001
0.0288131 0.210148 -0.267985
0.0288044 0.211147 -0.267969
0.027791 0.212131 -0.267466
0.0278019 0.211639 -0.267974
0.0277823 0.21313 -0.26745
0.0286124 0.233144 -0.267617
0.0276187 0.232635 -0.267638
0.0275555 0.239126 -0.267034
0.0275576 0.239634 -0.267526
0.0279174 0.199149 -0.268674
0.0279195 0.199657 -0.269166
0.0289133 0.200165 -0.269145
0.0289045 0.201165 -0.269129
0.0288958 0.202165 -0.269113
0.0288871 0.203165 -0.269097
0.0288784 0.204165 -0.269081
0.0288696 0.205164 -0.269065
0.0288609 0.206164 -0.269049
0.0288522 0.207164 -0.269033
0.0288435 0.208164 -0.269017
0.0278301 0.209147 -0.268514
0.027841 0.208655 -0.269022
0.0278214 0.210147 -0.268498
0.0278127 0.211147 -0.268482
0.0286253 0.23316 -0.268617
0.0276316 0.232651 -0.268638
0.0275705 0.23965 -0.268526
0.0279216 0.200165 -0.269658
0.0279129 0.201165 -0.269642
0.0279041 0.202165 -0.269626
0.0278954 0.203164 -0.26961
0.0278867 0.204164 -0.269594
0.027878 0.205164 -0.269578
0.0278692 0.206164 -0.269562
0.0278605 0.207164 -0.269546
0.0278518 0.208164 -0.26953
0.0276424 0.23216 -0.269146
0.0276532 0.231668 -0.269653
0.028647 0.232176 -0.269632
0.0286383 0.233176 -0.269616
0.0285772 0.240175 -0.269504
0.0275726 0.240158 -0.269017
0.0275747 0.240666 -0.269509
0.0286599 0.232192 -0.270632
0.0276661 0.231684 -0.270653
0.0286512 0.233192 -0.270616
0.0285901 0.240191 -0.270504
0.0275876 0.240682 -0.270509
0.0286728 0.232208 -0.271632
0.0276791 0.2317 -0.271653
0.0286641 0.233208 -0.271616
0.0276093 0.239699 -0.271525
0.0275984 0.24019 -0.271017
0.0276812 0.232208 -0.272145
0.0276833 0.232716 -0.272637
0.028677 0.233224 -0.272616
0.0286683 0.234224 -0.2726
0.0276222 0.239715 -0.272525
0.0276854 0.233224 -0.273129
0.0276766 0.234224 -0.273113
0.0276787 0.234732 -0.273605
0.0286725 0.23524 -0.273583
0.0276438 0.238731 -0.27354
0.027633 0.239223 -0.273033
0.0276808 0.23524 -0.274096
0.0276721 0.236239 -0.27408
0.0276634 0.237239 -0.274064
0.0276547 0.238239 -0.274048
0.0280278 0.213437 -0.286446
0.0280386 0.212945 -0.286954
0.0290324 0.213453 -0.286933
0.0290237 0.214453 -0.286917
0.0280191 0.214437 -0.28643
0.029015 0.215453 -0.286901
0.0280104 0.215436 -0.286414
0.0290062 0.216453 -0.286885
0.0280016 0.216436 -0.286398
0.0280037 0.216944 -0.28689
0.0280669 0.210453 -0.287494
0.0280777 0.209961 -0.288002
0.0290715 0.21047 -0.287981
0.0290628 0.21147 -0.287965
0.0280582 0.211453 -0.287478
0.0290541 0.21247 -0.287949
0.0280495 0.212453 -0.287462
0.0290453 0.213469 -0.287933
0.0290366 0.214469 -0.287917
0.0290279 0.215469 -0.287901
0.0290192 0.216469 -0.287885
0.0280058 0.217452 -0.287382
0.0290104 0.217469 -0.287869
0.0280079 0.21796 -0.287874
0.0280886 0.20947 -0.28851
0.0280994 0.208978 -0.289017
0.0290932 0.209486 -0.288996
0.0290844 0.210486 -0.28898
0.0290757 0.211486 -0.288964
0.029067 0.212486 -0.288948
0.0290583 0.213486 -0.288932
0.0290495 0.214485 -0.288916
0.0290408 0.215485 -0.2889
0.0290321 0.216485 -0.288884
0.0290234 0.217485 -0.288868
0.0280209 0.217976 -0.288873
0.0281102 0.208486 -0.289525
0.028121 0.207994 -0.290033
0.0291148 0.208502 -0.290012
0.0291061 0.209502 -0.289996
0.0290974 0.210502 -0.28998
0.0290886 0.211502 -0.289964
0.0290799 0.212502 -0.289948
0.0290712 0.213502 -0.289932
0.0290625 0.214501 -0.289916
0.0290537 0.215501 -0.2899
0.029045 0.216501 -0.289884
0.0290363 0.217501 -0.289868
0.0280338 0.217992 -0.289873
0.0291277 0.208519 -0.291012
0.028134 0.20801 -0.291033
0.029119 0.209518 -0.290996
0.0291103 0.210518 -0.29098
0.0291015 0.211518 -0.290964
0.0290928 0.212518 -0.290948
0.0290841 0.213518 -0.290932
0.0290754 0.214518 -0.290916
0.0290667 0.215517 -0.2909
0.0290579 0.216517 -0.290884
0.0290492 0.217517 -0.290868
0.0280467 0.218009 -0.290873
0.0291406 0.208535 -0.292012
0.0281469 0.208026 -0.292033
0.0291319 0.209535 -0.291996
0.0291232 0.210534 -0.29198
0.0291145 0.211534 -0.291964
0.0291057 0.212534 -0.291948
0.029097 0.213534 -0.291932
0.0290883 0.214534 -0.291916
0.028075 0.215517 -0.291413
0.0280858 0.215025 -0.291921
0.0280663 0.216517 -0.291397
0.0280575 0.217517 -0.291381
0.0291536 0.208551 -0.293012
0.0281598 0.208042 -0.293033
0.0291448 0.209551 -0.292996
0.0291361 0.21055 -0.29298
0.0291274 0.21155 -0.292964
0.0291187 0.21255 -0.292948
0.0281054 0.213533 -0.292445
0.0281162 0.213042 -0.292953
0.0280966 0.214533 -0.292429
0.0281619 0.20855 -0.293525
0.0281532 0.20955 -0.293509
0.0281444 0.21055 -0.293493
0.0281357 0.21155 -0.293477
0.028127 0.21255 -0.293461
0.0257389 0.211033 -0.262509
0.0257497 0.210541 -0.263017
0.0267435 0.21105 -0.262996
0.0267348 0.21205 -0.26298
0.0257302 0.212033 -0.262493
0.026726 0.213049 -0.262964
0.0257215 0.213033 -0.262477
0.0267173 0.214049 -0.262948
0.0257127 0.214033 -0.262461
0.0267086 0.215049 -0.262932
0.025704 0.215033 -0.262445
0.0266999 0.216049 -0.262916
0.0256953 0.216032 -0.262429
0.0266911 0.217049 -0.2629
0.0256866 0.217032 -0.262413
0.0266824 0.218049 -0.262884
0.0256778 0.218032 -0.262397
0.0266737 0.219048 -0.262868
0.0256691 0.219032 -0.262381
0.0256712 0.21954 -0.262873
0.0258129 0.20405 -0.263621
0.0258237 0.203559 -0.264129
0.0268175 0.204067 -0.264108
0.0258042 0.20505 -0.263605
0.0257954 0.20605 -0.263589
0.0257867 0.20705 -0.263573
0.025778 0.20805 -0.263557
0.0257693 0.20905 -0.263541
0.0257606 0.210049 -0.263525
0.0267128 0.216065 -0.263916
0.0267041 0.217065 -0.2639
0.0266953 0.218065 -0.263884
0.0266866 0.219065 -0.263868
0.0256841 0.219556 -0.263873
0.0258433 0.202067 -0.264653
0.0258541 0.201575 -0.265161
0.0268479 0.202083 -0.26514
0.0268391 0.203083 -0.265124
0.0258345 0.203067 -0.264637
0.0267257 0.216081 -0.264916
0.026717 0.217081 -0.2649
0.0267083 0.218081 -0.264884
0.0266995 0.219081 -0.264868
0.0256971 0.219572 -0.264873
0.0265599 0.235078 -0.264611
0.0265512 0.236078 -0.264595
0.0258736 0.200083 -0.265685
0.0258845 0.199592 -0.266193
0.0258649 0.201083 -0.265669
0.0267474 0.215097 -0.265931
0.0267386 0.216097 -0.265915
0.0267299 0.217097 -0.265899
0.0267212 0.218097 -0.265883
0.0267125 0.219097 -0.265867
0.02571 0.219588 -0.265872
0.0255857 0.233078 -0.265156
0.0255966 0.232586 -0.265664
0.0265903 0.233094 -0.265643
0.025577 0.234078 -0.26514
0.0255683 0.235078 -0.265124
0.0255596 0.236077 -0.265108
0.0255508 0.237077 -0.265092
0.0255529 0.237585 -0.265584
0.0258953 0.1991 -0.2667
0.0259061 0.198608 -0.267208
0.026769 0.214114 -0.266947
0.0267603 0.215114 -0.266931
0.0267516 0.216113 -0.266915
0.0267428 0.217113 -0.266899
0.0267341 0.218113 -0.266883
0.0257208 0.219096 -0.26638
0.0257316 0.218604 -0.266888
0.0256074 0.232094 -0.266172
0.0256182 0.231602 -0.26668
0.026612 0.232111 -0.266659
0.025555 0.238093 -0.266076
0.0255571 0.238601 -0.266568
0.0259257 0.197116 -0.267732
0.0259365 0.196624 -0.26824
0.0269302 0.197133 -0.268219
0.0269215 0.198133 -0.268203
0.0259169 0.198116 -0.267716
0.0267994 0.21213 -0.267979
0.0267907 0.21313 -0.267963
0.0267819 0.21413 -0.267947
0.0267732 0.21513 -0.267931
0.0267645 0.21613 -0.267915
0.0257512 0.217113 -0.267412
0.025762 0.216621 -0.26792
0.0257424 0.218113 -0.267396
0.025629 0.23111 -0.267188
0.0256398 0.230619 -0.267696
0.0266336 0.231127 -0.267675
0.0266249 0.232127 -0.267659
0.0255592 0.239109 -0.26706
0.0255613 0.239617 -0.267552
0.0259386 0.197132 -0.268732
0.0259407 0.19764 -0.269224
0.0269344 0.198149 -0.269203
0.0269257 0.199148 -0.269187
0.0268385 0.209147 -0.269027
0.0268297 0.210147 -0.269011
0.026821 0.211146 -0.268995
0.0268123 0.212146 -0.268979
0.0268036 0.213146 -0.268963
0.0267948 0.214146 -0.268947
0.0267861 0.215146 -0.268931
0.0257728 0.216129 -0.268428
0.0257836 0.215637 -0.268936
0.0256507 0.230127 -0.268204
0.0256615 0.229635 -0.268712
0.0266553 0.230143 -0.268691
0.0266465 0.231143 -0.268675
0.0266378 0.232143 -0.268659
0.026568 0.240142 -0.268531
0.0255634 0.240125 -0.268044
0.0255655 0.240633 -0.268536
0.0259428 0.198148 -0.269716
0.025934 0.199148 -0.2697
0.0259253 0.200148 -0.269684
0.0259166 0.201148 -0.269668
0.0259187 0.201656 -0.27016
0.0269125 0.202164 -0.270139
0.0269037 0.203164 -0.270123
0.026895 0.204164 -0.270107
0.0268863 0.205164 -0.270091
0.0268776 0.206163 -0.270075
0.0268688 0.207163 -0.270059
0.0268601 0.208163 -0.270043
0.0268514 0.209163 -0.270027
0.0268427 0.210163 -0.270011
0.0268339 0.211163 -0.269995
0.0268252 0.212162 -0.269979
0.0268165 0.213162 -0.269963
0.0258032 0.214146 -0.26946
0.025814 0.213654 -0.269968
0.0257945 0.215145 -0.269444
0.0266682 0.230159 -0.26969
0.0256744 0.229651 -0.269711
0.0266595 0.231159 -0.269674
0.0255784 0.240649 -0.269535
0.0259208 0.202164 -0.270652
0.0259121 0.203163 -0.270636
0.0259033 0.204163 -0.27062
0.0259054 0.204671 -0.271111
0.0268992 0.20518 -0.27109
0.0268905 0.20618 -0.271074
0.0268818 0.207179 -0.271058
0.026873 0.208179 -0.271042
0.0268643 0.209179 -0.271026
0.0268556 0.210179 -0.27101
0.0268469 0.211179 -0.270994
0.0258336 0.212162 -0.270491
0.0258444 0.21167 -0.270999
0.0258248 0.213162 -0.270475
0.0256852 0.229159 -0.270219
0.0256961 0.228667 -0.270727
0.0266898 0.229176 -0.270706
0.0266811 0.230176 -0.27069
0.0266724 0.231175 -0.270674
0.0255914 0.240665 -0.270535
0.0259075 0.205179 -0.271603
0.0258988 0.206179 -0.271587
0.0258901 0.207179 -0.271571
0.0258814 0.208179 -0.271555
0.0258726 0.209179 -0.271539
0.0258639 0.210178 -0.271523
0.0258552 0.211178 -0.271507
0.0267027 0.229192 -0.271706
0.025709 0.228683 -0.271727
0.026694 0.230192 -0.27169
0.0266853 0.231192 -0.271674
0.025613 0.239682 -0.271551
0.0256022 0.240173 -0.271043
0.0267157 0.229208 -0.272706
0.0257219 0.2287 -0.272727
0.0267069 0.230208 -0.27269
0.0266982 0.231208 -0.272674
0.0266895 0.232207 -0.272658
0.0256259 0.239698 -0.272551
0.025724 0.229208 -0.273219
0.0257261 0.229715 -0.273711
0.0267199 0.230224 -0.27369
0.0267111 0.231224 -0.273674
0.0267024 0.232224 -0.273658
0.0266937 0.233223 -0.273642
0.026685 0.234223 -0.273626
0.0256476 0.238714 -0.273567
0.0256368 0.239206 -0.273059
0.0257282 0.230223 -0.274203
0.0257195 0.231223 -0.274187
0.0257107 0.232223 -0.274171
0.025702 0.233223 -0.274155
0.0256933 0.234223 -0.274138
0.0256954 0.234731 -0.27463
0.0266892 0.235239 -0.274609
0.0266804 0.236239 -0.274593
0.0266717 0.237239 -0.274577
0.0256692 0.23773 -0.274582
0.0256584 0.238222 -0.274074
0.0256975 0.235239 -0.275122
0.0256888 0.236239 -0.275106
0.02568 0.237238 -0.27509
0.0259799 0.213355 -0.282473
0.0259907 0.212863 -0.282981
0.0269845 0.213372 -0.28296
0.025982 0.213863 -0.282965
0.026019 0.210372 -0.283521
0.0260298 0.20988 -0.284029
0.0270236 0.210388 -0.284008
0.0270148 0.211388 -0.283992
0.0260103 0.211372 -0.283505
0.0270061 0.212388 -0.283976
0.0260015 0.212372 -0.283489
0.0269974 0.213388 -0.28396
0.0259841 0.214371 -0.283457
0.0269887 0.214388 -0.283944
0.0269799 0.215388 -0.283928
0.0259754 0.215371 -0.283441
0.0269712 0.216387 -0.283912
0.0259666 0.216371 -0.283425
0.0259687 0.216879 -0.283917
0.0260493 0.208388 -0.284553
0.0260602 0.207896 -0.28506
0.0270539 0.208405 -0.285039
0.0270452 0.209405 -0.285023
0.0260406 0.209388 -0.284537
0.0270365 0.210405 -0.285007
0.0270278 0.211404 -0.284991
0.027019 0.212404 -0.284975
0.0270103 0.213404 -0.284959
0.0270016 0.214404 -0.284943
0.0269929 0.215404 -0.284927
0.0269841 0.216404 -0.284911
0.0259708 0.217387 -0.284408
0.0269754 0.217403 -0.284895
0.0269667 0.218403 -0.284879
0.0259621 0.218387 -0.284392
0.0259642 0.218895 -0.284884
0.026071 0.207405 -0.285568
0.0260818 0.206913 -0.286076
0.0270756 0.207421 -0.286055
0.0270669 0.208421 -0.286039
0.0270581 0.209421 -0.286023
0.0270494 0.210421 -0.286007
0.0270407 0.21142 -0.285991
0.027032 0.21242 -0.285975
0.0270232 0.21342 -0.285959
0.0270145 0.21442 -0.285943
0.0270058 0.21542 -0.285927
0.0269971 0.21642 -0.285911
0.0269883 0.217419 -0.285895
0.0269796 0.218419 -0.285879
0.0259663 0.219403 -0.285376
0.0269709 0.219419 -0.285863
0.0259684 0.219911 -0.285868
0.0270885 0.207437 -0.287055
0.0260947 0.206929 -0.287076
0.0270798 0.208437 -0.287039
0.0270711 0.209437 -0.287023
0.0270623 0.210437 -0.287007
0.0270536 0.211437 -0.286991
0.0270449 0.212436 -0.286975
0.0270013 0.217436 -0.286895
0.0269925 0.218435 -0.286879
0.0269838 0.219435 -0.286863
0.0259705 0.220419 -0.28636
0.0269751 0.220435 -0.286847
0.0259726 0.220927 -0.286852
0.0261056 0.206437 -0.287584
0.0261164 0.205945 -0.288092
0.0271101 0.206454 -0.288071
0.0271014 0.207453 -0.288055
0.0270927 0.208453 -0.288039
0.027084 0.209453 -0.288023
0.0270055 0.218452 -0.287879
0.0269967 0.219451 -0.287863
0.026988 0.220451 -0.287847
0.0259855 0.220943 -0.287852
0.0271231 0.20647 -0.289071
0.0261293 0.205961 -0.289092
0.0271143 0.20747 -0.289055
0.0271056 0.208469 -0.289039
0.0270184 0.218468 -0.288878
0.0270097 0.219468 -0.288862
0.0270009 0.220467 -0.288846
0.0259876 0.221451 -0.288344
0.0269922 0.221467 -0.28883
0.0259897 0.221959 -0.288835
0.027136 0.206486 -0.29007
0.0261422 0.205977 -0.290091
0.0271273 0.207486 -0.290054
0.0270313 0.218484 -0.289878
0.0270226 0.219484 -0.289862
0.0270138 0.220483 -0.289846
0.0260005 0.221467 -0.289343
0.0260114 0.220975 -0.289851
0.026153 0.205486 -0.290599
0.0261639 0.204994 -0.291107
0.0271576 0.205502 -0.291086
0.0271489 0.206502 -0.29107
0.0271402 0.207502 -0.291054
0.0270442 0.2185 -0.290878
0.0260309 0.219483 -0.290375
0.0260417 0.218991 -0.290883
0.0260222 0.220483 -0.290359
0.0271706 0.205518 -0.292086
0.0261768 0.20501 -0.292107
0.0271618 0.206518 -0.29207
0.0271531 0.207518 -0.292054
0.0270833 0.215517 -0.291926
0.0260808 0.216008 -0.291931
0.02607 0.2165 -0.291423
0.0260613 0.2175 -0.291407
0.0260526 0.218499 -0.291391
0.0271835 0.205534 -0.293086
0.0261897 0.205026 -0.293107
0.0271748 0.206534 -0.29307
0.027166 0.207534 -0.293054
0.0261199 0.213025 -0.292979
0.0261091 0.213516 -0.292471
0.0261004 0.214516 -0.292455
0.0260916 0.215516 -0.292439
0.0271964 0.20555 -0.294085
0.0262026 0.205042 -0.294107
0.0271877 0.20655 -0.294069
0.027179 0.20755 -0.294053
0.0271702 0.20855 -0.294037
0.0271615 0.20955 -0.294021
0.0271528 0.21055 -0.294005
0.0261503 0.211041 -0.29401
0.0261395 0.211533 -0.293503
0.0261307 0.212533 -0.293487
0.0262047 0.20555 -0.294598
0.026196 0.20655 -0.294582
0.0261873 0.20755 -0.294566
0.0261786 0.20855 -0.29455
0.0261698 0.209549 -0.294534
0.0261611 0.210549 -0.294518
0.0236861 0.215999 -0.261455
0.0236969 0.215507 -0.261963
0.0246907 0.216016 -0.261942
0.024682 0.217016 -0.261926
0.0236774 0.216999 -0.261439
0.0246732 0.218015 -0.26191
0.0236687 0.217999 -0.261423
0.0246645 0.219015 -0.261894
0.0236599 0.218999 -0.261407
0.0246558 0.220015 -0.261878
0.0236512 0.219999 -0.261391
0.0246471 0.221015 -0.261862
0.0236425 0.220998 -0.261375
0.0236446 0.221506 -0.261867
0.0237426 0.211016 -0.262535
0.0237535 0.210524 -0.263043
0.0237339 0.212016 -0.262519
0.0237252 0.213016 -0.262503
0.0237165 0.214016 -0.262487
0.0237077 0.215016 -0.262471
0.0246687 0.220031 -0.262878
0.02466 0.221031 -0.262862
0.0236467 0.222014 -0.262359
0.0246513 0.222031 -0.262846
0.0236488 0.222522 -0.262851
0.0238254 0.203034 -0.263663
0.0238362 0.202542 -0.264171
0.02483 0.20305 -0.26415
0.0238166 0.204033 -0.263647
0.0238079 0.205033 -0.263631
0.0237992 0.206033 -0.263615
0.0237905 0.207033 -0.263599
0.0237817 0.208033 -0.263583
0.023773 0.209033 -0.263567
0.0237643 0.210032 -0.263551
0.0246816 0.220047 -0.263878
0.0246729 0.221047 -0.263862
0.0246642 0.222047 -0.263846
0.0236617 0.222538 -0.263851
0.0238732 0.19905 -0.264727
0.023884 0.198559 -0.265235
0.0248778 0.199067 -0.265214
0.024869 0.200067 -0.265198
0.0238645 0.20005 -0.264711
0.0248603 0.201067 -0.265182
0.0238557 0.20105 -0.264695
0.023847 0.20205 -0.264679
0.0246946 0.220064 -0.264878
0.0246858 0.221063 -0.264862
0.0246771 0.222063 -0.264846
0.0236746 0.222555 -0.264851
0.0235591 0.235044 -0.264151
0.0235699 0.234553 -0.264659
0.0245637 0.235061 -0.264638
0.024555 0.236061 -0.264622
0.0235504 0.236044 -0.264135
0.0235525 0.236552 -0.264627
0.0238948 0.198067 -0.265743
0.0239057 0.197575 -0.266251
0.0248994 0.198083 -0.26623
0.0248907 0.199083 -0.266214
0.0247075 0.22008 -0.265877
0.0246988 0.221079 -0.265861
0.02469 0.222079 -0.265845
0.0236875 0.222571 -0.26585
0.0235982 0.232061 -0.265199
0.023609 0.231569 -0.265706
0.0246028 0.232078 -0.265685
0.0235895 0.233061 -0.265182
0.0235807 0.234061 -0.265166
0.0235546 0.23706 -0.265118
0.0245504 0.238077 -0.265589
0.0235458 0.23806 -0.265102
0.0235479 0.238568 -0.265594
0.0239514 0.193084 -0.266823
0.0239622 0.192592 -0.26733
0.024956 0.1931 -0.267309
0.0249472 0.1941 -0.267293
0.0239426 0.194083 -0.266807
0.0249385 0.1951 -0.267277
0.0239339 0.195083 -0.266791
0.0249298 0.1961 -0.267261
0.0239252 0.196083 -0.266775
0.0249211 0.1971 -0.267245
0.0239165 0.197083 -0.266759
0.0249123 0.198099 -0.267229
0.0247291 0.219096 -0.266893
0.0247204 0.220096 -0.266877
0.0247117 0.221096 -0.266861
0.0236984 0.222079 -0.266358
0.0237092 0.221587 -0.266866
0.0236286 0.230078 -0.26623
0.0236394 0.229586 -0.266738
0.0246332 0.230094 -0.266717
0.0246244 0.231094 -0.266701
0.0236198 0.231077 -0.266214
0.0245546 0.239093 -0.266573