<VTKFile type="UnstructuredGrid" version="0.1" byte_order="BigEndian">
  <UnstructuredGrid>
    <Piece NumberOfPoints="14130" NumberOfCells="28260">
      <PointData>
        <DataArray type="Float64" Name="position" NumberOfComponents="3" format="ascii">
0.0449481 0.241893 -0.263586
0.0449495 0.2414 -0.264094
0.0459524 0.24189 -0.264074
0.0449591 0.2424 -0.264079
0.0449509 0.240908 -0.264601
0.0449522 0.240415 -0.265108
0.0459552 0.240905 -0.265089
0.0459649 0.241905 -0.265074
0.0449702 0.242907 -0.264571
0.0459745 0.242905 -0.265059
0.0449812 0.243415 -0.265063
0.0459676 0.24092 -0.266088
0.0449647 0.24043 -0.266108
0.0459773 0.24192 -0.266073
0.045987 0.24292 -0.266058
0.0449937 0.24343 -0.266063
0.0459801 0.240935 -0.267088
0.0449771 0.240445 -0.267108
0.0459897 0.241935 -0.267073
0.0459994 0.242935 -0.267058
0.0450061 0.243444 -0.267063
0.0459925 0.24095 -0.268088
0.0449895 0.24046 -0.268108
0.0460022 0.24195 -0.268073
0.0460119 0.24295 -0.268058
0.0450186 0.243459 -0.268063
0.0450006 0.240967 -0.2686
0.0450117 0.241474 -0.269093
0.0460146 0.241965 -0.269073
0.0450199 0.242967 -0.26857
0.0450213 0.242474 -0.269078
0.0450227 0.241982 -0.269585
0.0429297 0.240898 -0.262626
0.0429311 0.240405 -0.263133
0.0439341 0.240895 -0.263114
0.0439437 0.241895 -0.263099
0.0429394 0.241897 -0.262611
0.0429504 0.242405 -0.263103
0.0429325 0.239913 -0.263641
0.0429339 0.23942 -0.264148
0.0439368 0.23991 -0.264128
0.0439465 0.24091 -0.264113
0.0439658 0.24291 -0.264083
0.0429615 0.242912 -0.263596
0.0429726 0.243419 -0.264088
0.0439493 0.239925 -0.265128
0.0429463 0.239435 -0.265148
0.042985 0.243434 -0.265088
0.0439617 0.23994 -0.266128
0.0429587 0.23945 -0.266148
0.0429974 0.243449 -0.266088
0.0439741 0.239955 -0.267128
0.0429712 0.239465 -0.267148
0.0430099 0.243464 -0.267088
0.0439866 0.23997 -0.268128
0.0429836 0.23948 -0.268147
0.0430223 0.243479 -0.268087
0.043999 0.239985 -0.269127
0.0429961 0.239494 -0.269147
0.0440087 0.240984 -0.269112
0.044028 0.242984 -0.269082
0.0430347 0.243494 -0.269087
0.0440115 0.239999 -0.270127
0.0430085 0.239509 -0.270147
0.0440211 0.240999 -0.270112
0.0440308 0.241999 -0.270097
0.0440405 0.242999 -0.270082
0.0430472 0.243509 -0.270087
0.0430196 0.240017 -0.270639
0.0430306 0.240524 -0.271132
0.0440336 0.241014 -0.271112
0.0440432 0.242014 -0.271097
0.0430486 0.243016 -0.270594
0.04305 0.242524 -0.271102
0.0430417 0.241031 -0.271624
0.0430513 0.242031 -0.271609
0.0409238 0.239917 -0.262665
0.0409252 0.239425 -0.263173
0.0419281 0.239915 -0.263153
0.0409335 0.240917 -0.26265
0.0409445 0.241425 -0.263143
0.0419475 0.241915 -0.263123
0.0409376 0.23944 -0.264173
0.0409556 0.241932 -0.263635
0.0409666 0.242439 -0.264128
0.0419696 0.242929 -0.264108
0.040939 0.238947 -0.26468
0.0409404 0.238455 -0.265187
0.0419434 0.238945 -0.265168
0.041982 0.242944 -0.265108
0.0409791 0.242454 -0.265127
0.0419558 0.23896 -0.266167
0.0409528 0.23847 -0.266187
0.0419945 0.242959 -0.266107
0.0409915 0.242469 -0.266127
0.0409542 0.237977 -0.266695
0.0409556 0.237485 -0.267202
0.0419586 0.237975 -0.267182
0.0419682 0.238975 -0.267167
0.0420069 0.242974 -0.267107
0.0410039 0.242484 -0.267127
0.041971 0.23799 -0.268182
0.040968 0.2375 -0.268202
0.0419807 0.23899 -0.268167
0.0410067 0.241499 -0.268142
0.0410053 0.241991 -0.267634
0.0420097 0.241989 -0.268122
0.0420193 0.242989 -0.268107
0.0419834 0.238005 -0.269182
0.0409805 0.237514 -0.269202
0.0419931 0.239004 -0.269167
0.0420221 0.242004 -0.269122
0.0410192 0.241514 -0.269142
0.0420318 0.243004 -0.269107
0.0419959 0.238019 -0.270182
0.0409929 0.237529 -0.270202
0.0420055 0.239019 -0.270167
0.0420346 0.242019 -0.270122
0.0410316 0.241529 -0.270142
0.0420442 0.243019 -0.270107
0.041004 0.238037 -0.270694
0.041015 0.238544 -0.271186
0.042018 0.239034 -0.271167
0.0420276 0.240034 -0.271152
0.0410344 0.240544 -0.271156
0.041033 0.241036 -0.270649
0.0420373 0.241034 -0.271137
0.042047 0.242034 -0.271122
0.0410261 0.239051 -0.271679
0.0410357 0.240051 -0.271664
0.0389179 0.238937 -0.262705
0.0389193 0.238445 -0.263212
0.0399222 0.238935 -0.263193
0.0399319 0.239935 -0.263178
0.0389289 0.239445 -0.263197
0.0399416 0.240934 -0.263163
0.0389206 0.237952 -0.26372
0.038922 0.23746 -0.264227
0.039925 0.23795 -0.264207
0.0399347 0.23895 -0.264192
0.03894 0.239952 -0.26369
0.039954 0.240949 -0.264162
0.038951 0.240459 -0.264182
0.0399637 0.241949 -0.264147
0.0399374 0.237965 -0.265207
0.0389345 0.237475 -0.265227
0.0399664 0.240964 -0.265162
0.0389635 0.240474 -0.265182
0.0399761 0.241964 -0.265147
0.0389358 0.236982 -0.265734
0.0389372 0.23649 -0.266242
0.0399402 0.23698 -0.266222
0.0399499 0.23798 -0.266207
0.0399789 0.240979 -0.266162
0.0389759 0.240489 -0.266182
0.0399885 0.241979 -0.266147
0.0399526 0.236995 -0.267222
0.0389497 0.236505 -0.267242
0.0399913 0.240994 -0.267162
0.0389884 0.240504 -0.267182
0.040001 0.241994 -0.267147
0.0399651 0.23701 -0.268222
0.0389621 0.236519 -0.268241
0.0400038 0.241009 -0.268162
0.0390008 0.240519 -0.268181
0.0399775 0.237024 -0.269221
0.0389745 0.236534 -0.269241
0.0400162 0.241024 -0.269161
0.0390132 0.240534 -0.269181
0.0399899 0.237039 -0.270221
0.038987 0.236549 -0.270241
0.0400286 0.241039 -0.270161
0.0390257 0.240549 -0.270181
0.038998 0.237057 -0.270733
0.0390091 0.237564 -0.271226
0.0400121 0.238054 -0.271206
0.0390381 0.240563 -0.271181
0.0390201 0.238071 -0.271718
0.0390312 0.238579 -0.272211
0.0400342 0.239069 -0.272191
0.0390409 0.239578 -0.272196
0.0390395 0.240071 -0.271688
0.0390423 0.239086 -0.272703
0.036912 0.237957 -0.262745
0.0369133 0.237465 -0.263252
0.0379163 0.237955 -0.263232
0.037926 0.238954 -0.263217
0.036923 0.238464 -0.263237
0.0369147 0.236972 -0.263759
0.0369161 0.23648 -0.264267
0.0379191 0.23697 -0.264247
0.0369354 0.238479 -0.264237
0.0379384 0.238969 -0.264217
0.0379481 0.239969 -0.264202
0.0369175 0.235987 -0.264774
0.0369189 0.235495 -0.265282
0.0379218 0.235985 -0.265262
0.0379315 0.236985 -0.265247
0.0369465 0.238987 -0.264729
0.0379605 0.239984 -0.265202
0.0369576 0.239494 -0.265222
0.0379343 0.236 -0.266262
0.0369313 0.23551 -0.266281
0.037973 0.239999 -0.266202
0.03697 0.239509 -0.266221
0.0379467 0.236014 -0.267261
0.0369437 0.235524 -0.267281
0.036981 0.240016 -0.266714
0.0369921 0.240524 -0.267206
0.0369451 0.235032 -0.267789
0.0369465 0.234539 -0.268296
0.0379495 0.23503 -0.268276
0.0379591 0.236029 -0.268261
0.0370045 0.240538 -0.268206
0.0379619 0.235044 -0.269276
0.036959 0.234554 -0.269296
0.0379716 0.236044 -0.269261
0.037017 0.240553 -0.269206
0.0379744 0.235059 -0.270276
0.0369714 0.234569 -0.270296
0.037984 0.236059 -0.270261
0.0370294 0.240568 -0.270206
0.0369824 0.235077 -0.270788
0.0369935 0.235584 -0.27128
0.0379965 0.236074 -0.271261
0.0380061 0.237074 -0.271246
0.0370322 0.239583 -0.27122
0.0370308 0.240076 -0.270713
0.0380351 0.240073 -0.271201
0.0380089 0.236089 -0.27226
0.0370059 0.235599 -0.27228
0.0380186 0.237089 -0.272245
0.0380282 0.238089 -0.27223
0.0370446 0.239598 -0.27222
0.037017 0.236106 -0.272773
0.037028 0.236613 -0.273265
0.038031 0.237104 -0.273245
0.0380407 0.238103 -0.27323
0.0380503 0.239103 -0.273215
0.0370571 0.239613 -0.27322
0.0370391 0.237121 -0.273757
0.0370502 0.237628 -0.27425
0.0380531 0.238118 -0.27423
0.0370584 0.239121 -0.273727
0.0370598 0.238628 -0.274235
0.0370612 0.238136 -0.274742
0.03592 0.237974 -0.263257
0.034609 0.204997 -0.264264
0.0346104 0.204504 -0.264771
0.0356133 0.204994 -0.264751
0.035623 0.205994 -0.264736
0.0346187 0.205997 -0.264249
0.0356327 0.206994 -0.264721
0.0346283 0.206997 -0.264234
0.0356424 0.207994 -0.264706
0.034638 0.207996 -0.264219
0.035652 0.208994 -0.264691
0.0346477 0.208996 -0.264204
0.0356617 0.209994 -0.264676
0.0346574 0.209996 -0.264189
0.0356714 0.210993 -0.264661
0.034667 0.210996 -0.264174
0.035681 0.211993 -0.264646
0.0346767 0.211996 -0.264159
0.0356907 0.212993 -0.264631
0.0346864 0.212996 -0.264144
0.0357004 0.213993 -0.264616
0.034696 0.213995 -0.264129
0.0347071 0.214503 -0.264621
0.0349088 0.235992 -0.263799
0.0349102 0.235499 -0.264306
0.0359131 0.23599 -0.264286
0.0349185 0.236992 -0.263784
0.0359325 0.237989 -0.264256
0.0349295 0.237499 -0.264276
0.0345828 0.201012 -0.265324
0.0345841 0.20052 -0.265831
0.0355871 0.20101 -0.265811
0.0355968 0.20201 -0.265796
0.0345924 0.202012 -0.265309
0.0356064 0.20301 -0.265781
0.0346021 0.203012 -0.265294
0.0356161 0.204009 -0.265766
0.0346118 0.204012 -0.265279
0.0356258 0.205009 -0.265751
0.0356355 0.206009 -0.265736
0.0356451 0.207009 -0.265721
0.0356548 0.208009 -0.265706
0.0356645 0.209009 -0.265691
0.0356741 0.210009 -0.265676
0.0356838 0.211008 -0.265661
0.0356935 0.212008 -0.265646
0.0357031 0.213008 -0.265631
0.0347085 0.21401 -0.265129
0.0347099 0.213518 -0.265636
0.0349116 0.235007 -0.264814
0.0349129 0.234514 -0.265321
0.0359159 0.235005 -0.265301
0.0349406 0.238006 -0.264769
0.0349516 0.238514 -0.265261
0.0359546 0.239004 -0.265241
0.0345855 0.200027 -0.266338
0.0345869 0.199535 -0.266846
0.0355899 0.200025 -0.266826
0.0355995 0.201025 -0.266811
0.0356092 0.202025 -0.266796
0.0356189 0.203025 -0.266781
0.0356286 0.204024 -0.266766
0.0356382 0.205024 -0.266751
0.0356479 0.206024 -0.266736
0.0356576 0.207024 -0.266721
0.0346629 0.208026 -0.266218
0.0346643 0.207534 -0.266726
0.0346726 0.209026 -0.266203
0.0346822 0.210026 -0.266188
0.0346919 0.211026 -0.266173
0.0347016 0.212025 -0.266158
0.0347112 0.213025 -0.266143
0.0359283 0.235019 -0.266301
0.0349254 0.234529 -0.266321
0.0349627 0.239021 -0.265753
0.0349737 0.239529 -0.266246
0.034598 0.200042 -0.267338
0.034609 0.20055 -0.267831
0.035612 0.20104 -0.267811
0.0356216 0.20204 -0.267796
0.0356313 0.203039 -0.267781
0.035641 0.204039 -0.267766
0.0356507 0.205039 -0.267751
0.034656 0.206041 -0.267248
0.0346574 0.205549 -0.267756
0.0346657 0.207041 -0.267233
0.0349268 0.234037 -0.266828
0.0349282 0.233544 -0.267336
0.0359311 0.234034 -0.267316
0.0359408 0.235034 -0.267301
0.0359891 0.240034 -0.267226
0.0349862 0.239543 -0.267246
0.0346201 0.201057 -0.268323
0.0346297 0.202057 -0.268308
0.0346394 0.203057 -0.268293
0.0346491 0.204057 -0.268278
0.0346588 0.205056 -0.268263
0.0359435 0.234049 -0.268316
0.0349406 0.233559 -0.268336
0.0360016 0.240048 -0.268226
0.0349986 0.239558 -0.268246
0.035956 0.234064 -0.269316
0.034953 0.233574 -0.269335
0.036014 0.240063 -0.269226
0.0350111 0.239573 -0.269245
0.0359684 0.234079 -0.270315
0.0349655 0.233589 -0.270335
0.0360265 0.240078 -0.270225
0.0350235 0.239588 -0.270245
0.0359809 0.234094 -0.271315
0.0349779 0.233604 -0.271335
0.0359905 0.235094 -0.2713
0.0350359 0.239603 -0.271245
0.034989 0.234111 -0.271827
0.035 0.234619 -0.27232
0.036003 0.235109 -0.2723
0.0350484 0.239618 -0.272245
0.0350111 0.235126 -0.272812
0.0350221 0.235633 -0.273305
0.0360251 0.236123 -0.273285
0.0350511 0.238633 -0.27326
0.0350497 0.239125 -0.272752
0.0360541 0.239123 -0.27324
0.0350332 0.236141 -0.273797
0.0350428 0.237141 -0.273782
0.0350525 0.23814 -0.273767
0.0360569 0.238138 -0.274255
0.0326003 0.205002 -0.263289
0.0326017 0.204509 -0.263796
0.0336047 0.204999 -0.263776
0.0336143 0.205999 -0.263761
0.03261 0.206001 -0.263274
0.033624 0.206999 -0.263746
0.0326197 0.207001 -0.263259
0.0336337 0.207999 -0.263731
0.0326293 0.208001 -0.263244
0.0336433 0.208999 -0.263716
0.032639 0.209001 -0.263229
0.033653 0.209998 -0.263701
0.0326487 0.210001 -0.263214
0.0336627 0.210998 -0.263686
0.0326583 0.211001 -0.263199
0.0336724 0.211998 -0.263671
0.032668 0.212001 -0.263184
0.033682 0.212998 -0.263656
0.0326777 0.213 -0.263169
0.0336917 0.213998 -0.263641
0.0326873 0.214 -0.263154
0.0337014 0.214998 -0.263626
0.032697 0.215 -0.263139
0.0327081 0.215507 -0.263631
0.0326031 0.204017 -0.264303
0.0326045 0.203524 -0.264811
0.0336074 0.204014 -0.264791
0.0337138 0.215013 -0.264626
0.0327205 0.215522 -0.264631
0.0329029 0.235012 -0.263838
0.0329043 0.234519 -0.264346
0.0339072 0.235009 -0.264326
0.0329125 0.236012 -0.263823
0.0329236 0.236519 -0.264316
0.0339266 0.237009 -0.264296
0.0325768 0.200032 -0.265363
0.0325782 0.19954 -0.265871
0.0335812 0.20003 -0.265851
0.0325865 0.201032 -0.265348
0.0325962 0.202032 -0.265333
0.0326058 0.203032 -0.265318
0.0337166 0.214028 -0.265641
0.0327233 0.214537 -0.265646
0.0327219 0.21503 -0.265138
0.0329056 0.234027 -0.264853
0.032907 0.233534 -0.265361
0.03391 0.234024 -0.265341
0.0329347 0.237026 -0.264808
0.0329457 0.237534 -0.265301
0.0339487 0.238024 -0.265281
0.0325796 0.199047 -0.266378
0.032581 0.198555 -0.266885
0.0335839 0.199045 -0.266866
0.033671 0.208043 -0.266731
0.0336807 0.209043 -0.266716
0.0336903 0.210043 -0.266701
0.0337 0.211043 -0.266686
0.0337097 0.212043 -0.266671
0.0337193 0.213043 -0.266656
0.032726 0.213552 -0.26666
0.0327247 0.214045 -0.266153
0.0329084 0.233042 -0.265868
0.0329098 0.232549 -0.266375
0.0339128 0.233039 -0.266356
0.0339224 0.234039 -0.266341
0.0329568 0.238041 -0.265793
0.0329678 0.238548 -0.266285
0.0339708 0.239038 -0.266266
0.0335964 0.19906 -0.267865
0.0325934 0.19857 -0.267885
0.0336061 0.20006 -0.26785
0.0336641 0.206059 -0.26776
0.0336738 0.207058 -0.267745
0.0336834 0.208058 -0.26773
0.0336931 0.209058 -0.267715
0.0337028 0.210058 -0.2677
0.0337124 0.211058 -0.267685
0.0327178 0.21206 -0.267183
0.0327191 0.211568 -0.26769
0.0327274 0.21306 -0.267168
0.0339252 0.233054 -0.267355
0.0329222 0.232564 -0.267375
0.0329789 0.239056 -0.266778
0.0329899 0.239563 -0.26727
0.0326045 0.199077 -0.268378
0.0326155 0.199584 -0.26887
0.0336185 0.200074 -0.26885
0.0336282 0.201074 -0.268835
0.0336378 0.202074 -0.26882
0.0336475 0.203074 -0.268805
0.0336572 0.204074 -0.26879
0.0336668 0.205074 -0.268775
0.0336765 0.206073 -0.26876
0.0336862 0.207073 -0.268745
0.0336959 0.208073 -0.26873
0.0327012 0.209075 -0.268228
0.0327026 0.208583 -0.268735
0.0327109 0.210075 -0.268213
0.0327205 0.211075 -0.268198
0.0339376 0.233069 -0.268355
0.0329347 0.232579 -0.268375
0.0330024 0.239578 -0.26827
0.0326266 0.200092 -0.269362
0.0326363 0.201092 -0.269347
0.0326459 0.202091 -0.269332
0.0326556 0.203091 -0.269317
0.0326653 0.204091 -0.269302
0.0326749 0.205091 -0.269287
0.0326846 0.206091 -0.269272
0.0326943 0.207091 -0.269257
0.0327039 0.20809 -0.269242
0.032936 0.232087 -0.268882
0.0329374 0.231594 -0.26939
0.0339404 0.232084 -0.26937
0.0339501 0.233084 -0.269355
0.0340178 0.240083 -0.26925
0.0330134 0.240085 -0.268762
0.0330245 0.240593 -0.269255
0.0339528 0.232099 -0.27037
0.0329499 0.231609 -0.27039
0.0339625 0.233099 -0.270355
0.0340302 0.240098 -0.27025
0.0330369 0.240608 -0.270255
0.0339653 0.232114 -0.27137
0.0329623 0.231624 -0.271389
0.0339749 0.233114 -0.271355
0.0330397 0.239623 -0.271269
0.0330383 0.240115 -0.270762
0.0329734 0.232131 -0.271882
0.0329844 0.232639 -0.272374
0.0339874 0.233129 -0.272355
0.0339971 0.234129 -0.27234
0.0330521 0.239637 -0.272269
0.0329955 0.233146 -0.272867
0.0330051 0.234146 -0.272852
0.0330162 0.234653 -0.273344
0.0340192 0.235143 -0.273324
0.0330549 0.238653 -0.273284
0.0330535 0.239145 -0.272777
0.0330272 0.235161 -0.273837
0.0330369 0.23616 -0.273822
0.0330466 0.23716 -0.273807
0.0330563 0.23816 -0.273792
0.0329637 0.213343 -0.286164
0.0329651 0.21285 -0.286672
0.0339681 0.21334 -0.286652
0.0339778 0.21434 -0.286637
0.0329734 0.214342 -0.286149
0.0339874 0.21534 -0.286622
0.0329831 0.215342 -0.286134
0.0339971 0.21634 -0.286607
0.0329928 0.216342 -0.286119
0.0330038 0.216849 -0.286612
0.0329472 0.210358 -0.287209
0.0329486 0.209865 -0.287716
0.0339515 0.210356 -0.287697
0.0339612 0.211355 -0.287682
0.0329568 0.211358 -0.287194
0.0339709 0.212355 -0.287667
0.0329665 0.212358 -0.287179
0.0339805 0.213355 -0.287652
0.0339902 0.214355 -0.287637
0.0339999 0.215355 -0.287622
0.0340095 0.216355 -0.287607
0.0330149 0.217357 -0.287104
0.0340192 0.217354 -0.287592
0.0330259 0.217864 -0.287596
0.0329499 0.209373 -0.288224
0.0329513 0.20888 -0.288731
0.0339543 0.209371 -0.288711
0.033964 0.21037 -0.288696
0.0339736 0.21137 -0.288681
0.0339833 0.21237 -0.288666
0.033993 0.21337 -0.288651
0.0340026 0.21437 -0.288636
0.0340123 0.21537 -0.288621
0.034022 0.216369 -0.288606
0.0340317 0.217369 -0.288591
0.0330384 0.217879 -0.288596
0.0329527 0.208388 -0.289239
0.0329541 0.207896 -0.289746
0.0339571 0.208386 -0.289726
0.0339667 0.209385 -0.289711
0.0339764 0.210385 -0.289696
0.0339861 0.211385 -0.289681
0.0339957 0.212385 -0.289666
0.0340054 0.213385 -0.289651
0.0340151 0.214385 -0.289636
0.0340247 0.215384 -0.289621
0.0340344 0.216384 -0.289606
0.0340441 0.217384 -0.289591
0.0330508 0.217894 -0.289596
0.0339695 0.2084 -0.290726
0.0329665 0.20791 -0.290746
0.0339792 0.2094 -0.290711
0.0339888 0.2104 -0.290696
0.0339985 0.2114 -0.290681
0.0340082 0.2124 -0.290666
0.0340178 0.2134 -0.290651
0.0340275 0.2144 -0.290636
0.0340372 0.215399 -0.290621
0.0340469 0.216399 -0.290606
0.0340565 0.217399 -0.290591
0.0330632 0.217909 -0.290596
0.0339819 0.208415 -0.291726
0.032979 0.207925 -0.291746
0.0339916 0.209415 -0.291711
0.0340013 0.210415 -0.291696
0.0340109 0.211415 -0.291681
0.0340206 0.212415 -0.291666
0.0340303 0.213415 -0.291651
0.03404 0.214414 -0.291636
0.0330453 0.215417 -0.291133
0.0330467 0.214924 -0.291641
0.0330549 0.216416 -0.291118
0.0330646 0.217416 -0.291103
0.0339944 0.20843 -0.292726
0.0329914 0.20794 -0.292746
0.034004 0.20943 -0.292711
0.0340137 0.21043 -0.292696
0.0340234 0.21143 -0.292681
0.034033 0.21243 -0.292666
0.0330384 0.213432 -0.292163
0.0330398 0.212939 -0.292671
0.033048 0.214432 -0.292148
0.0330025 0.208448 -0.293238
0.0330121 0.209447 -0.293223
0.0330218 0.210447 -0.293208
0.0330315 0.211447 -0.293193
0.0330411 0.212447 -0.293178
0.0306496 0.211005 -0.262223
0.030651 0.210513 -0.262731
0.031654 0.211003 -0.262711
0.0316637 0.212003 -0.262696
0.0306593 0.212005 -0.262208
0.0316733 0.213003 -0.262681
0.030669 0.213005 -0.262193
0.031683 0.214003 -0.262666
0.0306787 0.214005 -0.262178
0.0316927 0.215002 -0.262651
0.0306883 0.215005 -0.262163
0.0317023 0.216002 -0.262636
0.030698 0.216005 -0.262148
0.031712 0.217002 -0.262621
0.0307077 0.217005 -0.262133
0.0317217 0.218002 -0.262606
0.0307173 0.218004 -0.262118
0.0317314 0.219002 -0.262591
0.030727 0.219004 -0.262103
0.0307381 0.219512 -0.262596
0.0305944 0.204021 -0.263328
0.0305958 0.203529 -0.263835
0.0315987 0.204019 -0.263816
0.0306041 0.205021 -0.263313
0.0306137 0.206021 -0.263298
0.0306234 0.207021 -0.263283
0.0306331 0.208021 -0.263268
0.0306427 0.209021 -0.263253
0.0306524 0.210021 -0.263238
0.0317148 0.216017 -0.263636
0.0317245 0.217017 -0.263621
0.0317341 0.218017 -0.263606
0.0317438 0.219017 -0.263591
0.0307505 0.219526 -0.263596
0.0305875 0.202037 -0.264358
0.0305889 0.201544 -0.264865
0.0315918 0.202034 -0.264846
0.0316015 0.203034 -0.264831
0.0305972 0.203037 -0.264343
0.0317272 0.216032 -0.264636
0.0317369 0.217032 -0.264621
0.0317466 0.218032 -0.264606
0.0317562 0.219032 -0.264591
0.0307629 0.219541 -0.264595
0.031911 0.235029 -0.264351
0.0319206 0.236029 -0.264336
0.0305806 0.200052 -0.265388
0.030582 0.199559 -0.265895
0.0305903 0.201052 -0.265373
0.03173 0.215047 -0.26565
0.0317397 0.216047 -0.265635
0.0317493 0.217047 -0.26562
0.031759 0.218047 -0.265605
0.0317687 0.219046 -0.26559
0.0307754 0.219556 -0.265595
0.0308997 0.233047 -0.264893
0.0309011 0.232554 -0.2654
0.0319041 0.233044 -0.26538
0.0309094 0.234046 -0.264878
0.0309191 0.235046 -0.264863
0.0309287 0.236046 -0.264848
0.0309384 0.237046 -0.264833
0.0309495 0.237553 -0.265325
0.0305833 0.199067 -0.266403
0.0305847 0.198574 -0.26691
0.0317328 0.214062 -0.266665
0.0317424 0.215062 -0.26665
0.0317521 0.216062 -0.266635
0.0317618 0.217062 -0.26662
0.0317714 0.218061 -0.266605
0.0307768 0.219064 -0.266103
0.0307781 0.218571 -0.26661
0.0309025 0.232062 -0.265908
0.0309039 0.231569 -0.266415
0.0319068 0.232059 -0.266395
0.0309605 0.238061 -0.265818
0.0309716 0.238568 -0.26631
0.0305764 0.197082 -0.267432
0.0305778 0.19659 -0.26794
0.0315808 0.19708 -0.26792
0.0315905 0.19808 -0.267905
0.0305861 0.198082 -0.267417
0.0317259 0.212077 -0.267695
0.0317355 0.213077 -0.26768
0.0317452 0.214077 -0.267665
0.0317549 0.215077 -0.26765
0.0317645 0.216077 -0.267635
0.0307699 0.217079 -0.267132
0.0307712 0.216586 -0.26764
0.0307795 0.218079 -0.267117
0.0309053 0.231077 -0.266922
0.0309066 0.230584 -0.26743
0.0319096 0.231074 -0.26741
0.0319193 0.232074 -0.267395
0.0309826 0.239075 -0.266802
0.0309937 0.239583 -0.267295
0.0305889 0.197097 -0.268432
0.0305999 0.197604 -0.268925
0.0316029 0.198094 -0.268905
0.0316126 0.199094 -0.26889
0.0317093 0.209093 -0.26874
0.0317189 0.210093 -0.268725
0.0317286 0.211092 -0.26871
0.0317383 0.212092 -0.268695
0.031748 0.213092 -0.26868
0.0317576 0.214092 -0.268665
0.0317673 0.215092 -0.26865
0.0307726 0.216094 -0.268147
0.030774 0.215601 -0.268655
0.030908 0.230092 -0.267937
0.0309094 0.229599 -0.268445
0.0319124 0.230089 -0.268425
0.031922 0.231089 -0.26841
0.0319317 0.232089 -0.268395
0.0320091 0.240088 -0.268275
0.0310047 0.24009 -0.267787
0.0310158 0.240598 -0.26828
0.030611 0.198112 -0.269417
0.0306207 0.199112 -0.269402
0.0306303 0.200111 -0.269387
0.03064 0.201111 -0.269372
0.0306511 0.201619 -0.269864
0.031654 0.202109 -0.269845
0.0316637 0.203109 -0.26983
0.0316734 0.204108 -0.269815
0.031683 0.205108 -0.2698
0.0316927 0.206108 -0.269785
0.0317024 0.207108 -0.26977
0.031712 0.208108 -0.269755
0.0317217 0.209108 -0.26974
0.0317314 0.210107 -0.269725
0.0317411 0.211107 -0.26971
0.0317507 0.212107 -0.269695
0.0317604 0.213107 -0.26968
0.0307657 0.214109 -0.269177
0.0307671 0.213617 -0.269684
0.0307754 0.215109 -0.269162
0.0319248 0.230104 -0.269425
0.0309218 0.229614 -0.269444
0.0319345 0.231104 -0.26941
0.0310282 0.240612 -0.269279
0.0306621 0.202126 -0.270357
0.0306718 0.203126 -0.270342
0.0306815 0.204126 -0.270327
0.0306925 0.204633 -0.270819
0.0316955 0.205123 -0.270799
0.0317051 0.206123 -0.270784
0.0317148 0.207123 -0.270769
0.0317245 0.208123 -0.270754
0.0317342 0.209122 -0.270739
0.0317438 0.210122 -0.270724
0.0317535 0.211122 -0.270709
0.0307588 0.212124 -0.270207
0.0307602 0.211632 -0.270714
0.0307685 0.213124 -0.270192
0.0309232 0.229122 -0.269952
0.0309246 0.228629 -0.270459
0.0319276 0.229119 -0.270439
0.0319372 0.230119 -0.270424
0.0319469 0.231119 -0.270409
0.0310407 0.240627 -0.270279
0.0307036 0.20514 -0.271312
0.0307132 0.20614 -0.271297
0.0307229 0.20714 -0.271282
0.0307326 0.20814 -0.271267
0.0307422 0.20914 -0.271252
0.0307519 0.21014 -0.271237
0.0307616 0.211139 -0.271222
0.03194 0.229134 -0.271439
0.030937 0.228644 -0.271459
0.0319497 0.230134 -0.271424
0.0319593 0.231134 -0.271409
0.0310434 0.239642 -0.271294
0.031042 0.240135 -0.270787
0.0319524 0.229149 -0.272439
0.0309495 0.228659 -0.272459
0.0319621 0.230149 -0.272424
0.0319718 0.231149 -0.272409
0.0319815 0.232149 -0.272394
0.0310559 0.239657 -0.272294
0.0309605 0.229166 -0.272951
0.0309716 0.229674 -0.273444
0.0319746 0.230164 -0.273424
0.0319842 0.231164 -0.273409
0.0319939 0.232163 -0.273394
0.0320036 0.233163 -0.273379
0.0320132 0.234163 -0.273364
0.0310586 0.238672 -0.273309
0.0310572 0.239165 -0.272801
0.0309826 0.230181 -0.273936
0.0309923 0.231181 -0.273921
0.031002 0.232181 -0.273906
0.0310117 0.233181 -0.273891
0.0310213 0.23418 -0.273876
0.0310324 0.234688 -0.274368
0.0320353 0.235178 -0.274349
0.032045 0.236178 -0.274334
0.0320547 0.237177 -0.274319
0.0310614 0.237687 -0.274323
0.03106 0.23818 -0.273816
0.0310434 0.235195 -0.274861
0.0310531 0.236195 -0.274846
0.0310628 0.237195 -0.274831
0.0309177 0.213303 -0.28219
0.0309191 0.21281 -0.282697
0.0319221 0.2133 -0.282677
0.0309288 0.21381 -0.282682
0.0309012 0.210318 -0.283234
0.0309026 0.209826 -0.283742
0.0319055 0.210316 -0.283722
0.0319152 0.211316 -0.283707
0.0309108 0.211318 -0.283219
0.0319249 0.212315 -0.283692
0.0309205 0.212318 -0.283204
0.0319345 0.213315 -0.283677
0.0309399 0.214317 -0.283174
0.0319442 0.214315 -0.283662
0.0319539 0.215315 -0.283647
0.0309495 0.215317 -0.283159
0.0319635 0.216315 -0.283632
0.0309592 0.216317 -0.283144
0.0309702 0.216824 -0.283637
0.0308943 0.208333 -0.284264
0.0308956 0.207841 -0.284772
0.0318986 0.208331 -0.284752
0.0319083 0.209331 -0.284737
0.0309039 0.209333 -0.284249
0.031918 0.210331 -0.284722
0.0319276 0.21133 -0.284707
0.0319373 0.21233 -0.284692
0.031947 0.21333 -0.284677
0.0319566 0.21433 -0.284662
0.0319663 0.21533 -0.284647
0.031976 0.21633 -0.284632
0.0309813 0.217332 -0.284129
0.0319856 0.217329 -0.284617
0.0319953 0.218329 -0.284602
0.030991 0.218332 -0.284114
0.031002 0.218839 -0.284607
0.030897 0.207348 -0.285279
0.0308984 0.206856 -0.285786
0.0319014 0.207346 -0.285767
0.031911 0.208346 -0.285752
0.0319207 0.209346 -0.285737
0.0319304 0.210345 -0.285722
0.0319401 0.211345 -0.285707
0.0319497 0.212345 -0.285692
0.0319594 0.213345 -0.285677
0.0319691 0.214345 -0.285662
0.0319787 0.215345 -0.285647
0.0319884 0.216344 -0.285632
0.0319981 0.217344 -0.285617
0.0320078 0.218344 -0.285602
0.0310131 0.219346 -0.285099
0.0320174 0.219344 -0.285587
0.0310241 0.219854 -0.285591
0.0319138 0.207361 -0.286766
0.0309109 0.206871 -0.286786
0.0319235 0.208361 -0.286751
0.0319332 0.20936 -0.286736
0.0319428 0.21036 -0.286721
0.0319525 0.21136 -0.286706
0.0319622 0.21236 -0.286691
0.0320105 0.217359 -0.286616
0.0320202 0.218359 -0.286601
0.0320299 0.219359 -0.286586
0.0310352 0.220361 -0.286084
0.0320395 0.220359 -0.286571
0.0310462 0.220868 -0.286576
0.0309122 0.206378 -0.287294
0.0309136 0.205886 -0.287801
0.0319166 0.206376 -0.287781
0.0319263 0.207376 -0.287766
0.0319359 0.208376 -0.287751
0.0319456 0.209375 -0.287736
0.0320326 0.218374 -0.287601
0.0320423 0.219374 -0.287586
0.032052 0.220374 -0.287571
0.0310587 0.220883 -0.287576
0.031929 0.206391 -0.288781
0.0309261 0.205901 -0.288801
0.0319387 0.207391 -0.288766
0.0319484 0.20839 -0.288751
0.0320451 0.218389 -0.288601
0.0320547 0.219389 -0.288586
0.0320644 0.220388 -0.288571
0.0310697 0.221391 -0.288068
0.0320741 0.221388 -0.288556
0.0310808 0.221898 -0.288561
0.0319415 0.206406 -0.289781
0.0309385 0.205916 -0.289801
0.0319511 0.207405 -0.289766
0.0320575 0.218404 -0.289601
0.0320672 0.219404 -0.289586
0.0320768 0.220403 -0.289571
0.0310822 0.221406 -0.289068
0.0310836 0.220913 -0.289576
0.0309399 0.205423 -0.290308
0.0309413 0.204931 -0.290815
0.0319442 0.205421 -0.290796
0.0319539 0.20642 -0.290781
0.0319636 0.20742 -0.290766
0.0320699 0.218419 -0.290601
0.0310753 0.219421 -0.290098
0.0310767 0.218928 -0.290605
0.0310849 0.220421 -0.290083
0.0319567 0.205436 -0.291795
0.0309537 0.204945 -0.291815
0.0319663 0.206435 -0.29178
0.031976 0.207435 -0.291765
0.0320534 0.215434 -0.291645
0.0310601 0.215944 -0.29165
0.0310587 0.216436 -0.291143
0.0310684 0.217436 -0.291128
0.031078 0.218436 -0.291113
0.0319691 0.20545 -0.292795
0.0309661 0.20496 -0.292815
0.0319788 0.20645 -0.29278
0.0319884 0.20745 -0.292765
0.0310435 0.212959 -0.292695
0.0310421 0.213452 -0.292188
0.0310518 0.214451 -0.292173
0.0310615 0.215451 -0.292158
0.0319815 0.205465 -0.293795
0.0309786 0.204975 -0.293815
0.0319912 0.206465 -0.29378
0.0320009 0.207465 -0.293765
0.0320105 0.208465 -0.29375
0.0320202 0.209465 -0.293735
0.0320299 0.210464 -0.29372
0.0310366 0.210974 -0.293725
0.0310352 0.211467 -0.293217
0.0310449 0.212467 -0.293202
0.0309896 0.205483 -0.294307
0.0309993 0.206482 -0.294292
0.031009 0.207482 -0.294277
0.0310186 0.208482 -0.294262
0.0310283 0.209482 -0.294247
0.031038 0.210482 -0.294232
0.0286893 0.216009 -0.261173
0.0286907 0.215517 -0.26168
0.0296937 0.216007 -0.261661
0.0297033 0.217007 -0.261646
0.028699 0.217009 -0.261158
0.029713 0.218007 -0.261631
0.0287087 0.218009 -0.261143
0.0297227 0.219007 -0.261616
0.0287183 0.219009 -0.261128
0.0297323 0.220006 -0.261601
0.028728 0.220009 -0.261113
0.029742 0.221006 -0.261586
0.0287377 0.221009 -0.261098
0.0287487 0.221516 -0.26159
0.0286534 0.211025 -0.262248
0.0286548 0.210533 -0.262755
0.0286631 0.212025 -0.262233
0.0286727 0.213025 -0.262218
0.0286824 0.214025 -0.262203
0.0286921 0.215025 -0.262188
0.0297448 0.220021 -0.2626
0.0297544 0.221021 -0.262585
0.0287598 0.222023 -0.262083
0.0297641 0.222021 -0.26257
0.0287708 0.222531 -0.262575
0.0285885 0.203041 -0.263368
0.0285898 0.202549 -0.263875
0.0295928 0.203039 -0.263855
0.0285981 0.204041 -0.263353
0.0286078 0.205041 -0.263338
0.0286175 0.206041 -0.263323
0.0286271 0.207041 -0.263308
0.0286368 0.208041 -0.263293
0.0286465 0.20904 -0.263278
0.0286562 0.21004 -0.263263
0.0297572 0.220036 -0.2636
0.0297669 0.221036 -0.263585
0.0297766 0.222036 -0.26357
0.0287833 0.222546 -0.263575
0.0285622 0.199057 -0.264427
0.0285636 0.198564 -0.264935
0.0295666 0.199054 -0.264915
0.0295762 0.200054 -0.2649
0.0285719 0.200057 -0.264412
0.0295859 0.201054 -0.264885
0.0285816 0.201057 -0.264397
0.0285912 0.202056 -0.264382
0.0297696 0.220051 -0.2646
0.0297793 0.221051 -0.264585
0.029789 0.222051 -0.26457
0.0287957 0.222561 -0.264575
0.0289104 0.235051 -0.263887
0.0289118 0.234559 -0.264395
0.0299147 0.235049 -0.264375
0.0299244 0.236049 -0.26436
0.02892 0.236051 -0.263872
0.0289311 0.236558 -0.264365
0.028565 0.198072 -0.265442
0.0285664 0.197579 -0.26595
0.0295693 0.198069 -0.26593
0.029579 0.199069 -0.265915
0.0297821 0.220066 -0.2656
0.0297918 0.221066 -0.265585
0.0298014 0.222066 -0.26557
0.0288081 0.222575 -0.265575
0.0288938 0.232066 -0.264932
0.0288952 0.231574 -0.26544
0.0298981 0.232064 -0.26542
0.0289035 0.233066 -0.264917
0.0289131 0.234066 -0.264902
0.0289421 0.237066 -0.264857
0.0299562 0.238063 -0.26533
0.0289518 0.238066 -0.264842
0.0289629 0.238573 -0.265335
0.0285291 0.193088 -0.266517
0.0285305 0.192595 -0.267024
0.0295334 0.193085 -0.267005
0.0295431 0.194085 -0.26699
0.0285387 0.194087 -0.266502
0.0295528 0.195085 -0.266975
0.0285484 0.195087 -0.266487
0.0295624 0.196085 -0.26696
0.0285581 0.196087 -0.266472
0.0295721 0.197085 -0.266945
0.0285678 0.197087 -0.266457
0.0295818 0.198084 -0.26693
0.0297849 0.219081 -0.266615
0.0297945 0.220081 -0.2666
0.0298042 0.221081 -0.266585
0.0288095 0.222083 -0.266082
0.0288109 0.22159 -0.266589
0.0288869 0.230082 -0.265962
0.0288883 0.229589 -0.266469
0.0298912 0.230079 -0.26645
0.0299009 0.231079 -0.266435
0.0288966 0.231081 -0.265947
0.0299783 0.239078 -0.266315