<VTKFile type="UnstructuredGrid" version="0.1" byte_order="BigEndian">
  <UnstructuredGrid>
    <Piece NumberOfPoints="14130" NumberOfCells="28260">
      <PointData>
        <DataArray type="Float64" Name="position" NumberOfComponents="3" format="ascii">
0.0417323 0.241808 -0.263773
0.0417402 0.241316 -0.264281
0.0427372 0.241818 -0.26426
0.0417379 0.242316 -0.264266
0.041748 0.240823 -0.264788
0.0417559 0.240331 -0.265295
0.0427529 0.240833 -0.265274
0.0427507 0.241833 -0.26526
0.0417436 0.242823 -0.264758
0.0427485 0.242833 -0.265245
0.0417492 0.243331 -0.265251
0.0427664 0.240848 -0.266274
0.0417694 0.240346 -0.266295
0.0427642 0.241848 -0.266259
0.042762 0.242848 -0.266244
0.0417627 0.243345 -0.266251
0.04278 0.240863 -0.267274
0.0417829 0.240361 -0.267295
0.0427777 0.241863 -0.267259
0.0427755 0.242862 -0.267244
0.0417762 0.24336 -0.26725
0.0427935 0.240878 -0.268274
0.0417964 0.240376 -0.268295
0.0427912 0.241877 -0.268259
0.042789 0.242877 -0.268244
0.0417897 0.243375 -0.26825
0.0418021 0.240883 -0.268787
0.0418077 0.24139 -0.26928
0.0428047 0.241892 -0.269259
0.0417976 0.242883 -0.268757
0.0418055 0.24239 -0.269265
0.0418133 0.241898 -0.269772
0.0397247 0.24079 -0.262815
0.0397326 0.240297 -0.263323
0.0407296 0.240799 -0.263302
0.0407274 0.241799 -0.263287
0.0397225 0.241789 -0.262801
0.0397281 0.242297 -0.263293
0.0397405 0.239805 -0.26383
0.0397483 0.239312 -0.264337
0.0407454 0.239814 -0.264316
0.0407431 0.240814 -0.264302
0.0407386 0.242814 -0.264272
0.0397337 0.242804 -0.263786
0.0397394 0.243312 -0.264278
0.0407589 0.239829 -0.265316
0.0397618 0.239327 -0.265337
0.0397529 0.243326 -0.265278
0.0407724 0.239844 -0.266316
0.0397753 0.239342 -0.266337
0.0397664 0.243341 -0.266278
0.0407859 0.239859 -0.267316
0.0397888 0.239357 -0.267337
0.0397799 0.243356 -0.267277
0.0407994 0.239874 -0.268316
0.0398023 0.239372 -0.268337
0.0397934 0.243371 -0.268277
0.0408129 0.239888 -0.269315
0.0398159 0.239386 -0.269336
0.0408107 0.240888 -0.269301
0.0408062 0.242888 -0.269271
0.0398069 0.243386 -0.269277
0.0408264 0.239903 -0.270315
0.0398294 0.239401 -0.270336
0.0408242 0.240903 -0.2703
0.0408219 0.241903 -0.270286
0.0408197 0.242903 -0.270271
0.0398204 0.243401 -0.270277
0.039835 0.239909 -0.270829
0.0398406 0.240416 -0.271321
0.0408377 0.240918 -0.2713
0.0408354 0.241918 -0.271285
0.0398283 0.242908 -0.270784
0.0398362 0.242416 -0.271291
0.0398463 0.240924 -0.271814
0.039844 0.241923 -0.271799
0.0377306 0.239786 -0.262857
0.0377385 0.239293 -0.263365
0.0387355 0.239795 -0.263344
0.0377284 0.240785 -0.262842
0.037734 0.241293 -0.263335
0.0387311 0.241795 -0.263314
0.037752 0.239308 -0.264364
0.0377397 0.2418 -0.263827
0.0377453 0.242308 -0.26432
0.0387423 0.24281 -0.264299
0.0377599 0.238815 -0.264872
0.0377678 0.238323 -0.265379
0.0387648 0.238825 -0.265358
0.0387558 0.242825 -0.265299
0.0377588 0.242323 -0.26532
0.0387783 0.23884 -0.266358
0.0377813 0.238338 -0.266379
0.0387693 0.242839 -0.266299
0.0377723 0.242337 -0.266319
0.0377891 0.237845 -0.266886
0.037797 0.237353 -0.267394
0.038794 0.237855 -0.267373
0.0387918 0.238855 -0.267358
0.0387829 0.242854 -0.267298
0.0377858 0.242352 -0.267319
0.0388076 0.23787 -0.268372
0.0378105 0.237368 -0.268393
0.0388053 0.23887 -0.268358
0.0378016 0.241367 -0.268334
0.0377937 0.24186 -0.267827
0.0387986 0.241869 -0.268313
0.0387964 0.242869 -0.268298
0.0388211 0.237885 -0.269372
0.037824 0.237383 -0.269393
0.0388188 0.238885 -0.269357
0.0388121 0.241884 -0.269313
0.0378151 0.241382 -0.269334
0.0388099 0.242884 -0.269298
0.0388346 0.2379 -0.270372
0.0378375 0.237398 -0.270393
0.0388323 0.238899 -0.270357
0.0388256 0.241899 -0.270313
0.0378286 0.241397 -0.270334
0.0388234 0.242899 -0.270298
0.0378432 0.237905 -0.270885
0.0378488 0.238412 -0.271378
0.0388458 0.238914 -0.271357
0.0388436 0.239914 -0.271342
0.0378443 0.240412 -0.271348
0.0378364 0.240905 -0.270841
0.0388414 0.240914 -0.271327
0.0388391 0.241914 -0.271312
0.0378544 0.23892 -0.27187
0.0378522 0.23992 -0.271856
0.0357366 0.238782 -0.262899
0.0357444 0.238289 -0.263407
0.0367415 0.238791 -0.263386
0.0367392 0.239791 -0.263371
0.0357422 0.239289 -0.263392
0.036737 0.240791 -0.263356
0.0357523 0.237797 -0.263914
0.0357602 0.237304 -0.264421
0.0367572 0.237806 -0.2644
0.036755 0.238806 -0.264385
0.0357478 0.239796 -0.263884
0.0367505 0.240806 -0.264356
0.0357535 0.240304 -0.264377
0.0367483 0.241806 -0.264341
0.0367707 0.237821 -0.2654
0.0357737 0.237319 -0.265421
0.036764 0.240821 -0.265355
0.035767 0.240319 -0.265376
0.0367618 0.241821 -0.265341
0.0357816 0.236827 -0.265928
0.0357894 0.236334 -0.266436
0.0367865 0.236836 -0.266415
0.0367842 0.237836 -0.2664
0.0367775 0.240836 -0.266355
0.0357805 0.240334 -0.266376
0.0367753 0.241835 -0.26634
0.0368 0.236851 -0.267415
0.0358029 0.236349 -0.267435
0.036791 0.24085 -0.267355
0.035794 0.240348 -0.267376
0.0367888 0.24185 -0.26734
0.0368135 0.236866 -0.268414
0.0358164 0.236364 -0.268435
0.0368045 0.240865 -0.268355
0.0358075 0.240363 -0.268376
0.036827 0.236881 -0.269414
0.0358299 0.236379 -0.269435
0.036818 0.24088 -0.269355
0.035821 0.240378 -0.269376
0.0368405 0.236896 -0.270414
0.0358434 0.236394 -0.270435
0.0368315 0.240895 -0.270354
0.0358345 0.240393 -0.270375
0.0358491 0.236901 -0.270927
0.0358547 0.237408 -0.27142
0.0368518 0.23791 -0.271399
0.035848 0.240408 -0.271375
0.0358603 0.237916 -0.271912
0.035866 0.238423 -0.272405
0.036863 0.238925 -0.272384
0.0358637 0.239423 -0.27239
0.0358559 0.239916 -0.271883
0.0358716 0.238931 -0.272897
0.0337425 0.237778 -0.262941
0.0337504 0.237285 -0.263448
0.0347474 0.237787 -0.263427
0.0347452 0.238787 -0.263413
0.0337481 0.238285 -0.263434
0.0337582 0.236793 -0.263956
0.0337661 0.2363 -0.264463
0.0347631 0.236802 -0.264442
0.0337616 0.2383 -0.264433
0.0347587 0.238802 -0.264412
0.0347564 0.239802 -0.264398
0.033774 0.235808 -0.26497
0.0337818 0.235315 -0.265478
0.0347789 0.235817 -0.265457
0.0347766 0.236817 -0.265442
0.0337673 0.238807 -0.264926
0.0347699 0.239817 -0.265397
0.0337729 0.239315 -0.265418
0.0347924 0.235832 -0.266457
0.0337954 0.23533 -0.266478
0.0347834 0.239832 -0.266397
0.0337864 0.23933 -0.266418
0.0348059 0.235847 -0.267456
0.0338089 0.235345 -0.267477
0.033792 0.239837 -0.266911
0.0337977 0.240344 -0.267403
0.0338167 0.234852 -0.267985
0.0338246 0.23436 -0.268492
0.0348216 0.234862 -0.268471
0.0348194 0.235862 -0.268456
0.0338112 0.240359 -0.268403
0.0348351 0.234877 -0.269471
0.0338381 0.234375 -0.269492
0.0348329 0.235877 -0.269456
0.0338247 0.240374 -0.269403
0.0348487 0.234892 -0.270471
0.0338516 0.23439 -0.270492
0.0348464 0.235892 -0.270456
0.0338382 0.240389 -0.270402
0.0338572 0.234897 -0.270984
0.0338629 0.235405 -0.271477
0.0348599 0.235906 -0.271456
0.0348577 0.236906 -0.271441
0.0338539 0.239404 -0.271417
0.0338461 0.239897 -0.27091
0.034851 0.239906 -0.271396
0.0348734 0.235921 -0.272455
0.0338764 0.235419 -0.272476
0.0348712 0.236921 -0.272441
0.0348689 0.237921 -0.272426
0.0338674 0.239419 -0.272417
0.033882 0.235927 -0.272969
0.0338877 0.236434 -0.273461
0.0348847 0.236936 -0.27344
0.0348825 0.237936 -0.273425
0.0348802 0.238936 -0.273411
0.0338809 0.239434 -0.273417
0.0338933 0.236942 -0.273954
0.0338989 0.237449 -0.274446
0.034896 0.237951 -0.274425
0.0338888 0.238941 -0.273924
0.0338967 0.238449 -0.274431
0.0339046 0.237956 -0.274939
0.0327511 0.237783 -0.263455
0.0318335 0.204792 -0.264458
0.0318414 0.2043 -0.264966
0.0328385 0.204802 -0.264945
0.0328362 0.205802 -0.26493
0.0318313 0.205792 -0.264443
0.032834 0.206801 -0.264915
0.0318291 0.206792 -0.264429
0.0328317 0.207801 -0.2649
0.0318268 0.207792 -0.264414
0.0328295 0.208801 -0.264885
0.0318246 0.208792 -0.264399
0.0328273 0.209801 -0.26487
0.0318224 0.209792 -0.264384
0.032825 0.210801 -0.264855
0.0318201 0.210792 -0.264369
0.0328228 0.211801 -0.264841
0.0318179 0.211791 -0.264354
0.0328205 0.212801 -0.264826
0.0318156 0.212791 -0.264339
0.0328183 0.213801 -0.264811
0.0318134 0.213791 -0.264325
0.031819 0.214299 -0.264817
0.0317642 0.235789 -0.263998
0.031772 0.235296 -0.264505
0.0327691 0.235798 -0.264484
0.0317619 0.236789 -0.263983
0.0327646 0.237798 -0.264454
0.0317675 0.237296 -0.264475
0.031856 0.200808 -0.265517
0.0318639 0.200315 -0.266025
0.0328609 0.200817 -0.266004
0.0328587 0.201817 -0.265989
0.0318538 0.201807 -0.265503
0.0328564 0.202817 -0.265974
0.0318515 0.202807 -0.265488
0.0328542 0.203817 -0.265959
0.0318493 0.203807 -0.265473
0.032852 0.204817 -0.265944
0.0328497 0.205816 -0.26593
0.0328475 0.206816 -0.265915
0.0328452 0.207816 -0.2659
0.032843 0.208816 -0.265885
0.0328408 0.209816 -0.26587
0.0328385 0.210816 -0.265855
0.0328363 0.211816 -0.26584
0.0328341 0.212816 -0.265826
0.0318269 0.213806 -0.265324
0.0318348 0.213314 -0.265832
0.0317799 0.234804 -0.265012
0.0317878 0.234311 -0.26552
0.0327848 0.234813 -0.265499
0.0317732 0.237803 -0.264968
0.0317788 0.238311 -0.26546
0.0327759 0.238813 -0.265439
0.0318717 0.199823 -0.266532
0.0318796 0.19933 -0.267039
0.0328767 0.199832 -0.267019
0.0328744 0.200832 -0.267004
0.0328722 0.201832 -0.266989
0.0328699 0.202832 -0.266974
0.0328677 0.203832 -0.266959
0.0328655 0.204831 -0.266944
0.0328632 0.205831 -0.266929
0.032861 0.206831 -0.266915
0.0318538 0.207822 -0.266413
0.0318617 0.207329 -0.266921
0.0318516 0.208822 -0.266398
0.0318494 0.209821 -0.266384
0.0318471 0.210821 -0.266369
0.0318449 0.211821 -0.266354
0.0318426 0.212821 -0.266339
0.0327983 0.234828 -0.266498
0.0318013 0.234326 -0.266519
0.0317844 0.238818 -0.265953
0.0317901 0.239326 -0.266445
0.0318853 0.199837 -0.267532
0.0318909 0.200345 -0.268024
0.0328879 0.200847 -0.268003
0.0328857 0.201847 -0.267989
0.0328834 0.202847 -0.267974
0.0328812 0.203846 -0.267959
0.032879 0.204846 -0.267944
0.0318718 0.205837 -0.267443
0.0318797 0.205344 -0.26795
0.0318696 0.206837 -0.267428
0.0318091 0.233834 -0.267027
0.031817 0.233341 -0.267534
0.0328141 0.233843 -0.267513
0.0328118 0.234843 -0.267498
0.0328006 0.239842 -0.267424
0.0318036 0.23934 -0.267445
0.0318965 0.200852 -0.268517
0.0318943 0.201852 -0.268502
0.031892 0.202852 -0.268487
0.0318898 0.203852 -0.268472
0.0318876 0.204852 -0.268457
0.0328276 0.233858 -0.268513
0.0318305 0.233356 -0.268534
0.0328141 0.239857 -0.268424
0.0318171 0.239355 -0.268445
0.0328411 0.233873 -0.269513
0.031844 0.233371 -0.269534
0.0328276 0.239872 -0.269424
0.0318306 0.23937 -0.269445
0.0328546 0.233888 -0.270513
0.0318575 0.233386 -0.270533
0.0328411 0.239887 -0.270423
0.0318441 0.239385 -0.270444
0.0328681 0.233903 -0.271512
0.031871 0.233401 -0.271533
0.0328658 0.234903 -0.271497
0.0318576 0.2394 -0.271444
0.0318767 0.233908 -0.272026
0.0318823 0.234415 -0.272518
0.0328793 0.234917 -0.272497
0.0318711 0.239415 -0.272444
0.0318879 0.234923 -0.273011
0.0318936 0.23543 -0.273503
0.0328906 0.235932 -0.273482
0.0318869 0.23843 -0.273459
0.031879 0.238922 -0.272951
0.0328839 0.238932 -0.273438
0.0318992 0.235938 -0.273996
0.031897 0.236937 -0.273981
0.0318947 0.237937 -0.273966
0.0328996 0.237947 -0.274452
0.0298237 0.204773 -0.263485
0.0298316 0.204281 -0.263993
0.0308286 0.204783 -0.263972
0.0308264 0.205783 -0.263957
0.0298215 0.205773 -0.263471
0.0308242 0.206783 -0.263942
0.0298192 0.206773 -0.263456
0.0308219 0.207782 -0.263927
0.029817 0.207773 -0.263441
0.0308197 0.208782 -0.263912
0.0298148 0.208773 -0.263426
0.0308174 0.209782 -0.263898
0.0298125 0.209773 -0.263411
0.0308152 0.210782 -0.263883
0.0298103 0.210773 -0.263396
0.030813 0.211782 -0.263868
0.0298081 0.211772 -0.263381
0.0308107 0.212782 -0.263853
0.0298058 0.212772 -0.263367
0.0308085 0.213782 -0.263838
0.0298036 0.213772 -0.263352
0.0308063 0.214782 -0.263823
0.0298013 0.214772 -0.263337
0.029807 0.21528 -0.263829
0.0298395 0.203788 -0.2645
0.0298473 0.203296 -0.265007
0.0308444 0.203798 -0.264987
0.0308198 0.214797 -0.264823
0.0298205 0.215294 -0.264829
0.0297701 0.234785 -0.26404
0.0297779 0.234292 -0.264547
0.030775 0.234794 -0.264526
0.0297678 0.235785 -0.264025
0.0297735 0.236292 -0.264517
0.0307705 0.236794 -0.264496
0.0298619 0.199804 -0.265559
0.0298698 0.199311 -0.266067
0.0308668 0.199813 -0.266046
0.0298597 0.200803 -0.265545
0.0298575 0.201803 -0.26553
0.0298552 0.202803 -0.265515
0.0308355 0.213812 -0.265838
0.0298362 0.214309 -0.265844
0.0298284 0.214802 -0.265337
0.0297858 0.2338 -0.265054
0.0297937 0.233307 -0.265562
0.0307907 0.233809 -0.265541
0.0297791 0.236799 -0.26501
0.0297847 0.237307 -0.265502
0.0307818 0.237809 -0.265481
0.0298777 0.198819 -0.266574
0.0298855 0.198326 -0.267081
0.0308826 0.198828 -0.26706
0.0308624 0.207827 -0.266927
0.0308602 0.208827 -0.266912
0.030858 0.209827 -0.266897
0.0308557 0.210827 -0.266882
0.0308535 0.211827 -0.266867
0.0308512 0.212827 -0.266852
0.029852 0.213324 -0.266858
0.0298441 0.213817 -0.266351
0.0298016 0.232815 -0.266069
0.0298094 0.232322 -0.266576
0.0308065 0.232824 -0.266555
0.0308042 0.233824 -0.26654
0.0297904 0.237814 -0.265995
0.029796 0.238322 -0.266487
0.030793 0.238824 -0.266466
0.0308961 0.198843 -0.26806
0.0298991 0.198341 -0.268081
0.0308939 0.199843 -0.268045
0.0308804 0.205842 -0.267956
0.0308782 0.206842 -0.267941
0.0308759 0.207842 -0.267926
0.0308737 0.208842 -0.267912
0.0308715 0.209842 -0.267897
0.0308692 0.210842 -0.267882
0.0298621 0.211832 -0.267381
0.02987 0.21134 -0.267888
0.0298598 0.212832 -0.267366
0.03082 0.232839 -0.267555
0.0298229 0.232337 -0.267576
0.0298016 0.238829 -0.26698
0.0298073 0.239336 -0.267472
0.0299047 0.198848 -0.268574
0.0299103 0.199356 -0.269066
0.0309074 0.199858 -0.269045
0.0309051 0.200858 -0.26903
0.0309029 0.201858 -0.269015
0.0309006 0.202857 -0.269001
0.0308984 0.203857 -0.268986
0.0308962 0.204857 -0.268971
0.0308939 0.205857 -0.268956
0.0308917 0.206857 -0.268941
0.0308895 0.207857 -0.268926
0.0298823 0.208847 -0.268425
0.0298902 0.208355 -0.268932
0.0298801 0.209847 -0.26841
0.0298778 0.210847 -0.268395
0.0308335 0.232854 -0.268555
0.0298364 0.232352 -0.268576
0.0298208 0.239351 -0.268472
0.029916 0.199863 -0.269559
0.0299137 0.200863 -0.269544
0.0299115 0.201863 -0.269529
0.0299092 0.202863 -0.269514
0.029907 0.203863 -0.269499
0.0299048 0.204863 -0.269484
0.0299025 0.205862 -0.269469
0.0299003 0.206862 -0.269455
0.029898 0.207862 -0.26944
0.0298443 0.23186 -0.269083
0.0298522 0.231367 -0.26959
0.0308492 0.231869 -0.269569
0.030847 0.232869 -0.269555
0.0308313 0.239868 -0.269451
0.0298264 0.239859 -0.268964
0.029832 0.240366 -0.269457
0.0308627 0.231884 -0.270569
0.0298657 0.231382 -0.27059
0.0308605 0.232884 -0.270554
0.0308448 0.239883 -0.27045
0.0298456 0.240381 -0.270457
0.0308762 0.231899 -0.271569
0.0298792 0.231397 -0.27159
0.030874 0.232899 -0.271554
0.0298613 0.239396 -0.271471
0.0298534 0.239888 -0.270964
0.0298848 0.231904 -0.272083
0.0298905 0.232412 -0.272575
0.0308875 0.232914 -0.272554
0.0308853 0.233913 -0.272539
0.0298748 0.239411 -0.272471
0.0298961 0.232919 -0.273067
0.0298939 0.233919 -0.273053
0.0298995 0.234426 -0.273545
0.0308965 0.234928 -0.273524
0.0298905 0.238426 -0.273486
0.0298827 0.238918 -0.272978
0.0299051 0.234934 -0.274038
0.0299029 0.235934 -0.274023
0.0299007 0.236933 -0.274008
0.0298984 0.237933 -0.273993
0.0301165 0.213115 -0.286362
0.0301243 0.212622 -0.286869
0.0311214 0.213124 -0.286848
0.0311191 0.214124 -0.286833
0.0301142 0.214115 -0.286347
0.0311169 0.215124 -0.286819
0.030112 0.215115 -0.286332
0.0311147 0.216124 -0.286804
0.0301097 0.216114 -0.286317
0.0301154 0.216622 -0.28681
0.0301367 0.21013 -0.287406
0.0301446 0.209637 -0.287914
0.0311416 0.210139 -0.287893
0.0311394 0.211139 -0.287878
0.0301344 0.21113 -0.287391
0.0311371 0.212139 -0.287863
0.0301322 0.21213 -0.287377
0.0311349 0.213139 -0.287848
0.0311326 0.214139 -0.287833
0.0311304 0.215139 -0.287818
0.0311282 0.216139 -0.287804
0.030121 0.217129 -0.287302
0.0311259 0.217139 -0.287789
0.0301266 0.217637 -0.287795
0.0301524 0.209145 -0.288421
0.0301603 0.208652 -0.288928
0.0311573 0.209154 -0.288907
0.0311551 0.210154 -0.288893
0.0311529 0.211154 -0.288878
0.0311506 0.212154 -0.288863
0.0311484 0.213154 -0.288848
0.0311461 0.214154 -0.288833
0.0311439 0.215154 -0.288818
0.0311417 0.216154 -0.288803
0.0311394 0.217154 -0.288789
0.0301401 0.217651 -0.288795
0.0301682 0.20816 -0.289436
0.030176 0.207667 -0.289943
0.0311731 0.208169 -0.289922
0.0311708 0.209169 -0.289907
0.0311686 0.210169 -0.289892
0.0311664 0.211169 -0.289877
0.0311641 0.212169 -0.289863
0.0311619 0.213169 -0.289848
0.0311597 0.214169 -0.289833
0.0311574 0.215169 -0.289818
0.0311552 0.216169 -0.289803
0.0311529 0.217168 -0.289788
0.0301537 0.217666 -0.289794
0.0311866 0.208184 -0.290922
0.0301895 0.207682 -0.290943
0.0311843 0.209184 -0.290907
0.0311821 0.210184 -0.290892
0.0311799 0.211184 -0.290877
0.0311776 0.212184 -0.290862
0.0311754 0.213184 -0.290848
0.0311732 0.214184 -0.290833
0.0311709 0.215184 -0.290818
0.0311687 0.216183 -0.290803
0.0311664 0.217183 -0.290788
0.0301672 0.217681 -0.290794
0.0312001 0.208199 -0.291922
0.0302031 0.207697 -0.291943
0.0311979 0.209199 -0.291907
0.0311956 0.210199 -0.291892
0.0311934 0.211199 -0.291877
0.0311911 0.212199 -0.291862
0.0311889 0.213199 -0.291847
0.0311867 0.214199 -0.291832
0.0301795 0.215189 -0.291331
0.0301874 0.214696 -0.291839
0.0301773 0.216189 -0.291316
0.030175 0.217189 -0.291302
0.0312136 0.208214 -0.292921
0.0302166 0.207712 -0.292942
0.0312114 0.209214 -0.292907
0.0312091 0.210214 -0.292892
0.0312069 0.211214 -0.292877
0.0312046 0.212214 -0.292862
0.0301975 0.213204 -0.292361
0.0302054 0.212712 -0.292868
0.0301953 0.214204 -0.292346
0.0302222 0.20822 -0.293435
0.03022 0.209219 -0.29342
0.0302177 0.210219 -0.293405
0.0302155 0.211219 -0.29339
0.0302132 0.212219 -0.293375
0.0278005 0.210754 -0.262424
0.0278083 0.210261 -0.262931
0.0288054 0.210763 -0.26291
0.0288031 0.211763 -0.262895
0.0277982 0.211754 -0.262409
0.0288009 0.212763 -0.26288
0.027796 0.212753 -0.262394
0.0287987 0.213763 -0.262865
0.0277938 0.213753 -0.262379
0.0287964 0.214763 -0.262851
0.0277915 0.214753 -0.262364
0.0287942 0.215763 -0.262836
0.0277893 0.215753 -0.262349
0.028792 0.216762 -0.262821
0.027787 0.216753 -0.262334
0.0287897 0.217762 -0.262806
0.0277848 0.217753 -0.26232
0.0287875 0.218762 -0.262791
0.0277826 0.218753 -0.262305
0.0277882 0.21926 -0.262797
0.0278297 0.203769 -0.263527
0.0278375 0.203277 -0.264035
0.0288346 0.203779 -0.264014
0.0278274 0.204769 -0.263513
0.0278252 0.205769 -0.263498
0.0278229 0.206769 -0.263483
0.0278207 0.207769 -0.263468
0.0278185 0.208769 -0.263453
0.0278162 0.209769 -0.263438
0.0288077 0.215777 -0.263835
0.0288055 0.216777 -0.263821
0.0288032 0.217777 -0.263806
0.028801 0.218777 -0.263791
0.0278017 0.219275 -0.263797
0.0278476 0.201784 -0.264557
0.0278555 0.201292 -0.265064
0.0288525 0.201794 -0.265043
0.0288503 0.202794 -0.265028
0.0278454 0.202784 -0.264542
0.0288212 0.215792 -0.264835
0.028819 0.216792 -0.26482
0.0288167 0.217792 -0.264806
0.0288145 0.218792 -0.264791
0.0278152 0.21929 -0.264797
0.0287787 0.23479 -0.264553
0.0287764 0.23579 -0.264538
0.0278656 0.1998 -0.265586
0.0278735 0.199307 -0.266094
0.0278634 0.200799 -0.265572
0.0288369 0.214807 -0.26585
0.0288347 0.215807 -0.265835
0.0288325 0.216807 -0.26582
0.0288302 0.217807 -0.265805
0.028828 0.218807 -0.26579
0.0278287 0.219305 -0.265797
0.0277917 0.232796 -0.265096
0.0277996 0.232303 -0.265603
0.0287967 0.232805 -0.265582
0.0277895 0.233796 -0.265081
0.0277873 0.234796 -0.265066
0.027785 0.235795 -0.265052
0.0277828 0.236795 -0.265037
0.0277884 0.237303 -0.265529
0.0278814 0.198815 -0.266601
0.0278892 0.198322 -0.267108
0.0288527 0.213822 -0.266865
0.0288505 0.214822 -0.26685
0.0288482 0.215822 -0.266835
0.028846 0.216822 -0.26682
0.0288437 0.217822 -0.266805
0.0278366 0.218812 -0.266304
0.0278445 0.21832 -0.266811
0.0278075 0.231811 -0.266111
0.0278154 0.231318 -0.266618
0.0288124 0.23182 -0.266597
0.0277941 0.23781 -0.266022
0.0277997 0.238318 -0.266514
0.0278993 0.19683 -0.267631
0.0279072 0.196337 -0.268138
0.0289043 0.196839 -0.268117
0.028902 0.197839 -0.268102
0.0278971 0.19783 -0.267616
0.0288707 0.211837 -0.267894
0.0288684 0.212837 -0.267879
0.0288662 0.213837 -0.267864
0.028864 0.214837 -0.26785
0.0288617 0.215837 -0.267835
0.0278546 0.216827 -0.267333
0.0278624 0.216335 -0.267841
0.0278523 0.217827 -0.267319
0.0278232 0.230826 -0.267125
0.0278311 0.230333 -0.267633
0.0288281 0.230835 -0.267612
0.0288259 0.231835 -0.267597
0.0278053 0.238825 -0.267007
0.027811 0.239332 -0.267499
0.0279129 0.196845 -0.26863
0.0279185 0.197352 -0.269123
0.0289155 0.197854 -0.269102
0.0289133 0.198854 -0.269087
0.0288909 0.208853 -0.268938
0.0288887 0.209853 -0.268924
0.0288864 0.210852 -0.268909
0.0288842 0.211852 -0.268894
0.0288819 0.212852 -0.268879
0.0288797 0.213852 -0.268864
0.0288775 0.214852 -0.268849
0.0278703 0.215842 -0.268348
0.0278782 0.21535 -0.268855
0.027839 0.229841 -0.26814
0.0278469 0.229348 -0.268647
0.0288439 0.22985 -0.268626
0.0288417 0.23085 -0.268612
0.0288394 0.23185 -0.268597
0.0288215 0.239849 -0.268478
0.0278166 0.23984 -0.267991
0.0278222 0.240347 -0.268484
0.0279241 0.197859 -0.269615
0.0279219 0.198859 -0.2696
0.0279196 0.199859 -0.269586
0.0279174 0.200859 -0.269571
0.027923 0.201366 -0.270063
0.0289201 0.201868 -0.270042
0.0289178 0.202868 -0.270027
0.0289156 0.203868 -0.270013
0.0289134 0.204868 -0.269998
0.0289111 0.205868 -0.269983
0.0289089 0.206868 -0.269968
0.0289066 0.207868 -0.269953
0.0289044 0.208868 -0.269938
0.0289022 0.209867 -0.269923
0.0288999 0.210867 -0.269909
0.0288977 0.211867 -0.269894
0.0288955 0.212867 -0.269879
0.0278883 0.213858 -0.269378
0.0278962 0.213365 -0.269885
0.0278861 0.214857 -0.269363
0.0288574 0.229865 -0.269626
0.0278604 0.229363 -0.269647
0.0288552 0.230865 -0.269611
0.0278357 0.240362 -0.269484
0.0279287 0.201874 -0.270556
0.0279264 0.202874 -0.270541
0.0279242 0.203874 -0.270526
0.0279298 0.204381 -0.271018
0.0289269 0.204883 -0.270997
0.0289246 0.205883 -0.270983
0.0289224 0.206883 -0.270968
0.0289201 0.207883 -0.270953
0.0289179 0.208882 -0.270938
0.0289157 0.209882 -0.270923
0.0289134 0.210882 -0.270908
0.0279063 0.211873 -0.270407
0.0279142 0.21138 -0.270914
0.027904 0.212873 -0.270392
0.0278682 0.228871 -0.270155
0.0278761 0.228378 -0.270662
0.0288731 0.22888 -0.270641
0.0288709 0.22988 -0.270626
0.0288687 0.23088 -0.270611
0.0278492 0.240377 -0.270484
0.0279355 0.204888 -0.271511
0.0279332 0.205888 -0.271496
0.027931 0.206888 -0.271481
0.0279287 0.207888 -0.271466
0.0279265 0.208888 -0.271451
0.0279243 0.209888 -0.271437
0.027922 0.210888 -0.271422
0.0288866 0.228895 -0.271641
0.0278896 0.228393 -0.271662
0.0288844 0.229895 -0.271626
0.0288822 0.230895 -0.271611
0.027865 0.239392 -0.271498
0.0278571 0.239884 -0.270991
0.0289002 0.22891 -0.27264
0.0279031 0.228408 -0.272661
0.0288979 0.22991 -0.272626
0.0288957 0.23091 -0.272611
0.0288934 0.23191 -0.272596
0.0278785 0.239407 -0.272498
0.0279088 0.228915 -0.273154
0.0279144 0.229423 -0.273646
0.0289114 0.229925 -0.273625
0.0289092 0.230925 -0.273611
0.0289069 0.231925 -0.273596
0.0289047 0.232924 -0.273581
0.0289025 0.233924 -0.273566
0.0278942 0.238422 -0.273513
0.0278864 0.238914 -0.273005
0.02792 0.22993 -0.274139
0.0279178 0.23093 -0.274124
0.0279155 0.23193 -0.274109
0.0279133 0.23293 -0.274094
0.0279111 0.23393 -0.274079
0.0279167 0.234437 -0.274572
0.0289137 0.234939 -0.274551
0.0289115 0.235939 -0.274536
0.0289093 0.236939 -0.274521
0.02791 0.237437 -0.274527
0.0279021 0.237929 -0.27402
0.0279223 0.234944 -0.275064
0.0279201 0.235944 -0.275049
0.0279179 0.236944 -0.275035
0.0280661 0.213051 -0.28239
0.028074 0.212559 -0.282897
0.029071 0.213061 -0.282876
0.0280718 0.213559 -0.282882
0.0280863 0.210066 -0.283434
0.0280942 0.209574 -0.283942
0.0290913 0.210076 -0.283921
0.029089 0.211076 -0.283906
0.0280841 0.211066 -0.283419
0.0290868 0.212076 -0.283891
0.0280819 0.212066 -0.283404
0.0290845 0.213076 -0.283876
0.0280774 0.214066 -0.283375
0.0290823 0.214075 -0.283861
0.0290801 0.215075 -0.283846
0.0280752 0.215066 -0.28336
0.0290778 0.216075 -0.283831
0.0280729 0.216066 -0.283345
0.0280785 0.216573 -0.283838
0.0281043 0.208081 -0.284464
0.0281122 0.207589 -0.284971
0.0291092 0.208091 -0.28495
0.029107 0.209091 -0.284935
0.0281021 0.209081 -0.284449
0.0291048 0.210091 -0.28492
0.0291025 0.211091 -0.284906
0.0291003 0.212091 -0.284891
0.029098 0.21309 -0.284876
0.0290958 0.21409 -0.284861
0.0290936 0.21509 -0.284846
0.0290913 0.21609 -0.284831
0.0280842 0.21708 -0.28433
0.0290891 0.21709 -0.284816
0.0290869 0.21809 -0.284802
0.0280819 0.21808 -0.284315
0.0280876 0.218588 -0.284808
0.0281201 0.207096 -0.285478
0.0281279 0.206604 -0.285986
0.029125 0.207106 -0.285965
0.0291227 0.208106 -0.28595
0.0291205 0.209106 -0.285935
0.0291183 0.210106 -0.28592
0.029116 0.211106 -0.285905
0.0291138 0.212105 -0.28589
0.0291115 0.213105 -0.285876
0.0291093 0.214105 -0.285861
0.0291071 0.215105 -0.285846
0.0291048 0.216105 -0.285831
0.0291026 0.217105 -0.285816
0.0291004 0.218105 -0.285801
0.0280932 0.219095 -0.2853
0.0290981 0.219105 -0.285786
0.0280988 0.219603 -0.285793
0.0291385 0.207121 -0.286965
0.0281414 0.206619 -0.286985
0.0291362 0.208121 -0.28695
0.029134 0.209121 -0.286935
0.0291318 0.210121 -0.28692
0.0291295 0.21112 -0.286905
0.0291273 0.21212 -0.28689
0.0291161 0.21712 -0.286816
0.0291139 0.21812 -0.286801
0.0291116 0.21912 -0.286786
0.0281045 0.22011 -0.286285
0.0291094 0.220119 -0.286771
0.0281101 0.220617 -0.286777
0.0281493 0.206126 -0.287493
0.0281572 0.205634 -0.288
0.0291542 0.206136 -0.287979
0.029152 0.207136 -0.287964
0.0291498 0.208136 -0.287949
0.0291475 0.209136 -0.287935
0.0291274 0.218135 -0.287801
0.0291251 0.219134 -0.287786
0.0291229 0.220134 -0.287771
0.0281236 0.220632 -0.287777
0.0291677 0.206151 -0.288979
0.0281707 0.205649 -0.289
0.0291655 0.207151 -0.288964
0.0291633 0.208151 -0.288949
0.0291409 0.218149 -0.288801
0.0291386 0.219149 -0.288786
0.0291364 0.220149 -0.288771
0.0281293 0.22114 -0.28827
0.0291342 0.221149 -0.288756
0.0281349 0.221647 -0.288762
0.0291812 0.206166 -0.289979
0.0281842 0.205664 -0.29
0.029179 0.207166 -0.289964
0.0291544 0.218164 -0.2898
0.0291521 0.219164 -0.289786
0.0291499 0.220164 -0.289771
0.0281428 0.221154 -0.28927
0.0281506 0.220662 -0.289777
0.0281921 0.205171 -0.290507
0.0282 0.204679 -0.291014
0.029197 0.205181 -0.290993
0.0291947 0.206181 -0.290979
0.0291925 0.20718 -0.290964
0.0291679 0.218179 -0.2908
0.0281607 0.21917 -0.290299
0.0281686 0.218677 -0.290806
0.0281585 0.220169 -0.290284
0.0292105 0.205196 -0.291993
0.0282135 0.204694 -0.292014
0.0292083 0.206195 -0.291978
0.029206 0.207195 -0.291964
0.0291881 0.215194 -0.291845
0.0281888 0.215692 -0.291851
0.028181 0.216185 -0.291343
0.0281787 0.217185 -0.291329
0.0281765 0.218185 -0.291314
0.029224 0.20521 -0.292993
0.028227 0.204708 -0.293014
0.0292218 0.20621 -0.292978
0.0292195 0.20721 -0.292963
0.0282091 0.212708 -0.292895
0.0282012 0.2132 -0.292388
0.0281989 0.2142 -0.292373
0.0281967 0.2152 -0.292358
0.0292375 0.205225 -0.293993
0.0282405 0.204723 -0.294014
0.0292353 0.206225 -0.293978
0.029233 0.207225 -0.293963
0.0292308 0.208225 -0.293948
0.0292286 0.209225 -0.293933
0.0292263 0.210225 -0.293919
0.028227 0.210723 -0.293925
0.0282192 0.211215 -0.293417
0.0282169 0.212215 -0.293402
0.0282461 0.205231 -0.294506
0.0282439 0.206231 -0.294491
0.0282416 0.20723 -0.294477
0.0282394 0.20823 -0.294462
0.0282371 0.20923 -0.294447
0.0282349 0.21023 -0.294432
0.0257795 0.215734 -0.261377
0.0257873 0.215242 -0.261884
0.0267844 0.215744 -0.261863
0.0267821 0.216743 -0.261848
0.0257772 0.216734 -0.261362
0.0267799 0.217743 -0.261833
0.025775 0.217734 -0.261347
0.0267777 0.218743 -0.261818
0.0257727 0.218734 -0.261332
0.0267754 0.219743 -0.261803
0.0257705 0.219734 -0.261317
0.0267732 0.220743 -0.261789
0.0257683 0.220734 -0.261302
0.0257739 0.221241 -0.261795
0.0258042 0.21075 -0.262451
0.025812 0.210257 -0.262958
0.0258019 0.211749 -0.262436
0.0257997 0.212749 -0.262421
0.0257974 0.213749 -0.262406
0.0257952 0.214749 -0.262391
0.0267889 0.219758 -0.262803
0.0267867 0.220758 -0.262788
0.0257795 0.221748 -0.262287
0.0267844 0.221758 -0.262774
0.0257852 0.222256 -0.26278
0.0258356 0.202765 -0.263569
0.0258434 0.202273 -0.264077
0.0268405 0.202775 -0.264056
0.0258333 0.203765 -0.263554
0.0258311 0.204765 -0.26354
0.0258289 0.205765 -0.263525
0.0258266 0.206765 -0.26351
0.0258244 0.207765 -0.263495
0.0258221 0.208765 -0.26348
0.0258199 0.209765 -0.263465
0.0268024 0.219773 -0.263803
0.0268002 0.220773 -0.263788
0.026798 0.221773 -0.263773
0.0257987 0.222271 -0.263779
0.025858 0.198781 -0.264628
0.0258659 0.198288 -0.265136
0.0268629 0.19879 -0.265115
0.0268607 0.19979 -0.2651
0.0258558 0.199781 -0.264614
0.0268585 0.20079 -0.265085
0.0258536 0.20078 -0.264599
0.0258513 0.20178 -0.264584
0.0268159 0.219788 -0.264803
0.0268137 0.220788 -0.264788
0.0268115 0.221788 -0.264773
0.0258122 0.222285 -0.264779
0.0257774 0.234777 -0.264094
0.0257853 0.234284 -0.264601
0.0267824 0.234786 -0.26458
0.0267801 0.235786 -0.264565
0.0257752 0.235777 -0.264079
0.0257808 0.236284 -0.264571
0.0258738 0.197796 -0.265643
0.0258817 0.197303 -0.26615
0.0268787 0.197805 -0.26613
0.0268764 0.198805 -0.266115
0.0268294 0.219803 -0.265803
0.0268272 0.220803 -0.265788
0.026825 0.221802 -0.265773
0.0258257 0.2223 -0.265779
0.0257977 0.231792 -0.265138
0.0258055 0.231299 -0.265645
0.0268026 0.231801 -0.265624
0.0257954 0.232792 -0.265123
0.0257932 0.233792 -0.265108
0.0257865 0.236791 -0.265064
0.0267891 0.237801 -0.265535
0.0257842 0.237791 -0.265049
0.0257899 0.238299 -0.265541
0.0258985 0.192811 -0.266717
0.0259063 0.192319 -0.267225
0.0269034 0.192821 -0.267204
0.0269011 0.193821 -0.267189
0.0258962 0.193811 -0.266702
0.0268989 0.19482 -0.267174
0.025894 0.194811 -0.266688
0.0268967 0.19582 -0.267159
0.0258918 0.195811 -0.266673
0.0268944 0.19682 -0.267144
0.0258895 0.196811 -0.266658
0.0268922 0.19782 -0.267129
0.0268452 0.218818 -0.266817
0.0268429 0.219818 -0.266802
0.0268407 0.220817 -0.266788
0.0258336 0.221808 -0.266286
0.0258414 0.221315 -0.266794
0.0258157 0.229807 -0.266167
0.0258235 0.229314 -0.266675
0.0268206 0.229816 -0.266654
0.0268183 0.230816 -0.266639