<VTKFile type="UnstructuredGrid" version="0.1" byte_order="BigEndian">
  <UnstructuredGrid>
    <Piece NumberOfPoints="15886" NumberOfCells="31772">
      <PointData>
        <DataArray type="Float64" Name="position" NumberOfComponents="3" format="ascii">
0.0456537 0.224156 -0.29214
0.0456657 0.223654 -0.292638
0.0466589 0.224164 -0.292626
0.046649 0.225164 -0.29263
0.0456438 0.225156 -0.292144
0.045646 0.225654 -0.292646
0.046673 0.22416 -0.293626
0.0456799 0.22365 -0.293638
0.0466632 0.22516 -0.29363
0.0456601 0.22565 -0.293646
0.0466872 0.224155 -0.294626
0.0456941 0.223646 -0.294638
0.0466774 0.225155 -0.29463
0.0456623 0.226147 -0.294148
0.0466675 0.226155 -0.294634
0.0456645 0.226645 -0.294651
0.0467014 0.224151 -0.295626
0.0457082 0.223641 -0.295638
0.0466915 0.225151 -0.29563
0.0456765 0.226143 -0.295148
0.0456885 0.225641 -0.295646
0.0467156 0.224147 -0.296626
0.0457224 0.223637 -0.296638
0.0467057 0.225147 -0.29663
0.0457027 0.225637 -0.296646
0.0457246 0.224135 -0.29714
0.0457147 0.225135 -0.297144
0.0436531 0.22314 -0.291164
0.0436652 0.222638 -0.291662
0.0446583 0.223148 -0.29165
0.0446485 0.224148 -0.291654
0.0436433 0.22414 -0.291168
0.0446386 0.225148 -0.291659
0.0436334 0.22514 -0.291173
0.0436356 0.225638 -0.291675
0.0436772 0.222136 -0.29216
0.0436892 0.221634 -0.292658
0.0446824 0.222144 -0.292646
0.0446725 0.223144 -0.29265
0.0446429 0.226144 -0.292663
0.0436377 0.226136 -0.292177
0.0436399 0.226634 -0.292679
0.0446966 0.22214 -0.293646
0.0437034 0.22163 -0.293658
0.0446867 0.22314 -0.29365
0.0446571 0.22614 -0.293663
0.0436541 0.22663 -0.293679
0.0447108 0.222136 -0.294645
0.0437176 0.221626 -0.294657
0.0447009 0.223136 -0.29465
0.0436683 0.226626 -0.294679
0.0447249 0.222132 -0.295645
0.0437318 0.221622 -0.295657
0.0447151 0.223132 -0.29565
0.0446855 0.226131 -0.295662
0.0436824 0.226621 -0.295679
0.0447391 0.222128 -0.296645
0.043746 0.221618 -0.296657
0.0447293 0.223127 -0.296649
0.0446997 0.226127 -0.296662
0.0436966 0.226617 -0.296679
0.0447533 0.222123 -0.297645
0.0437601 0.221614 -0.297657
0.0447434 0.223123 -0.297649
0.0447336 0.224123 -0.297654
0.0447237 0.225123 -0.297658
0.0447138 0.226123 -0.297662
0.0437108 0.226613 -0.297678
0.0447675 0.222119 -0.298645
0.0437743 0.221609 -0.298657
0.0447576 0.223119 -0.298649
0.0447478 0.224119 -0.298654
0.0447379 0.225119 -0.298658
0.044728 0.226119 -0.298662
0.043725 0.226609 -0.298678
0.0447817 0.222115 -0.299645
0.0437885 0.221605 -0.299657
0.0447718 0.223115 -0.299649
0.0447619 0.224115 -0.299653
0.0447521 0.225115 -0.299658
0.0447422 0.226115 -0.299662
0.0437392 0.226605 -0.299678
0.0437907 0.222103 -0.300159
0.0437928 0.222601 -0.300661
0.044786 0.223111 -0.300649
0.0447761 0.224111 -0.300653
0.0447663 0.225111 -0.300658
0.0447564 0.226111 -0.300662
0.0437534 0.226601 -0.300678
0.043795 0.223099 -0.301163
0.0437972 0.223597 -0.301665
0.0447903 0.224107 -0.301653
0.0447804 0.225107 -0.301657
0.0437654 0.226099 -0.301176
0.0437774 0.225597 -0.301674
0.0437993 0.224095 -0.302167
0.0437894 0.225095 -0.302172
0.0416668 0.22212 -0.291188
0.0416788 0.221618 -0.291686
0.042672 0.222128 -0.291674
0.0416569 0.22312 -0.291192
0.0416471 0.22412 -0.291197
0.0416372 0.22512 -0.291201
0.0416394 0.225618 -0.291703
0.0416909 0.221116 -0.292184
0.0417029 0.220614 -0.292682
0.0426961 0.221124 -0.29267
0.0416415 0.226116 -0.292205
0.0416437 0.226614 -0.292707
0.0427102 0.22112 -0.29367
0.0417171 0.22061 -0.293682
0.0416579 0.22661 -0.293707
0.0427244 0.221116 -0.294669
0.0417313 0.220606 -0.294681
0.0416721 0.226606 -0.294707
0.0417433 0.220104 -0.295179
0.0417553 0.219602 -0.295677
0.0427485 0.220112 -0.295665
0.0427386 0.221112 -0.295669
0.0416862 0.226602 -0.295707
0.0427627 0.220108 -0.296665
0.0417695 0.219598 -0.296677
0.0427528 0.221108 -0.296669
0.0417004 0.226598 -0.296707
0.0427768 0.220104 -0.297665
0.0417837 0.219594 -0.297677
0.042767 0.221104 -0.297669
0.0417146 0.226593 -0.297707
0.042791 0.2201 -0.298665
0.0417979 0.21959 -0.298677
0.0427812 0.221099 -0.298669
0.0417288 0.226589 -0.298707
0.0418 0.220088 -0.299179
0.0418022 0.220585 -0.299681
0.0427953 0.221095 -0.299669
0.041743 0.226585 -0.299706
0.0428095 0.221091 -0.300669
0.0418164 0.220581 -0.300681
0.0427997 0.222091 -0.300673
0.0417572 0.226581 -0.300706
0.0428237 0.221087 -0.301669
0.0418305 0.220577 -0.301681
0.0428138 0.222087 -0.301673
0.042804 0.223087 -0.301677
0.0427744 0.226087 -0.30169
0.0417713 0.226577 -0.301706
0.0418327 0.221075 -0.302183
0.0418349 0.221573 -0.302685
0.042828 0.222083 -0.302673
0.0428182 0.223083 -0.302677
0.0428083 0.224083 -0.302681
0.0427984 0.225083 -0.302686
0.0427886 0.226083 -0.30269
0.0417855 0.226573 -0.302706
0.041837 0.222071 -0.303187
0.0418392 0.222569 -0.303689
0.0428324 0.223079 -0.303677
0.0428225 0.224079 -0.303681
0.0428126 0.225079 -0.303685
0.0428027 0.226079 -0.30369
0.0417997 0.226569 -0.303706
0.0418413 0.223067 -0.304191
0.0418315 0.224067 -0.304195
0.0418216 0.225067 -0.3042
0.0418117 0.226067 -0.304204
0.0396706 0.222101 -0.291216
0.0396826 0.221599 -0.291714
0.0396607 0.223101 -0.291221
0.0396509 0.224101 -0.291225
0.039641 0.2251 -0.291229
0.0396432 0.225598 -0.291731
0.0396947 0.221097 -0.292212
0.0397067 0.220595 -0.29271
0.0406505 0.226104 -0.292719
0.0396573 0.225594 -0.292731
0.0397187 0.220093 -0.293208
0.0397307 0.21959 -0.293705
0.0407239 0.2201 -0.293694
0.0396595 0.226092 -0.293233
0.0396617 0.22659 -0.293735
0.0397428 0.219088 -0.294203
0.0397548 0.218586 -0.294701
0.040748 0.219096 -0.294689
0.0407381 0.220096 -0.294693
0.0396758 0.226586 -0.294735
0.0407621 0.219092 -0.295689
0.039769 0.218582 -0.295701
0.0406832 0.227092 -0.295723
0.039678 0.227084 -0.295237
0.0396802 0.227582 -0.295739
0.0407763 0.219088 -0.296689
0.0397832 0.218578 -0.296701
0.0406974 0.227088 -0.296723
0.0396944 0.227578 -0.296739
0.0407905 0.219084 -0.297689
0.0397973 0.218574 -0.297701
0.0407116 0.227083 -0.297723
0.0397085 0.227574 -0.297739
0.0408047 0.21908 -0.298689
0.0398115 0.21857 -0.298701
0.0407258 0.227079 -0.298723
0.0397227 0.227569 -0.298739
0.0408189 0.219076 -0.299689
0.0398257 0.218566 -0.299701
0.040809 0.220076 -0.299693
0.0407399 0.227075 -0.299723
0.0397369 0.227565 -0.299739
0.0398279 0.219064 -0.300203
0.03983 0.219562 -0.300705
0.0408232 0.220071 -0.300693
0.0407541 0.227071 -0.300723
0.0397511 0.227561 -0.300739
0.0408374 0.220067 -0.301693
0.0398442 0.219557 -0.301705
0.0407683 0.227067 -0.301722
0.0397653 0.227557 -0.301739
0.0408516 0.220063 -0.302693
0.0398584 0.219553 -0.302705
0.0408417 0.221063 -0.302697
0.0407825 0.227063 -0.302722
0.0397795 0.227553 -0.302739
0.0398606 0.220051 -0.303207
0.0398627 0.220549 -0.303709
0.0408559 0.221059 -0.303697
0.040846 0.222059 -0.303701
0.0407967 0.227059 -0.303722
0.0397816 0.228051 -0.303241
0.0407868 0.228059 -0.303727
0.0397838 0.228549 -0.303743
0.0408701 0.221055 -0.304697
0.0398769 0.220545 -0.304709
0.0408602 0.222055 -0.304701
0.0408503 0.223055 -0.304705
0.0408405 0.224055 -0.304709
0.0408306 0.225055 -0.304714
0.0408207 0.226055 -0.304718
0.0408109 0.227055 -0.304722
0.0397958 0.228047 -0.304241
0.0398078 0.227545 -0.304738
0.0398791 0.221043 -0.305211
0.0398812 0.221541 -0.305713
0.0408744 0.222051 -0.305701
0.0408645 0.223051 -0.305705
0.0408547 0.224051 -0.305709
0.0408448 0.225051 -0.305714
0.0408349 0.226051 -0.305718
0.0398199 0.227043 -0.305236
0.0398319 0.226541 -0.305734
0.0398834 0.222039 -0.306215
0.0398735 0.223039 -0.306219
0.0398636 0.224039 -0.306223
0.0398538 0.225039 -0.306228
0.0398439 0.226039 -0.306232
0.0376744 0.222081 -0.291245
0.0376864 0.221579 -0.291742
0.0376645 0.223081 -0.291249
0.0376667 0.223579 -0.291751
0.0386599 0.224089 -0.291739
0.03865 0.225088 -0.291743
0.0376985 0.221077 -0.29224
0.0377105 0.220575 -0.292738
0.0376689 0.224077 -0.292253
0.037659 0.225077 -0.292257
0.0376611 0.225574 -0.292759
0.0377225 0.220073 -0.293236
0.0377345 0.219571 -0.293734
0.0376633 0.226072 -0.293262
0.0376655 0.22657 -0.293764
0.0387518 0.219076 -0.294717
0.0377487 0.219567 -0.294734
0.0376796 0.226566 -0.294763
0.0387659 0.219072 -0.295717
0.0377629 0.219562 -0.295734
0.0376818 0.227064 -0.295266
0.037684 0.227562 -0.295768
0.0377749 0.21906 -0.296231
0.037787 0.218558 -0.296729
0.0376981 0.227558 -0.296768
0.0378011 0.218554 -0.297729
0.0377123 0.227554 -0.297767
0.0378153 0.21855 -0.298729
0.0377265 0.22755 -0.298767
0.0378295 0.218546 -0.299729
0.0387339 0.228055 -0.299755
0.0377287 0.228047 -0.299269
0.0377308 0.228545 -0.299771
0.0388369 0.219052 -0.300717
0.0378437 0.218542 -0.300729
0.0387481 0.228051 -0.300755
0.037745 0.228541 -0.300771
0.038851 0.219048 -0.301717
0.0378579 0.218538 -0.301729
0.0387622 0.228047 -0.301755
0.0377592 0.228537 -0.301771
0.0388652 0.219043 -0.302717
0.0378721 0.218534 -0.302728
0.0387764 0.228043 -0.302755
0.0377734 0.228533 -0.302771
0.0378742 0.219032 -0.303231
0.0378764 0.219529 -0.303733
0.0388695 0.220039 -0.303721
0.0377876 0.228529 -0.303771
0.0388837 0.220035 -0.304721
0.0378906 0.219525 -0.304733
0.0388048 0.228035 -0.304755
0.0378018 0.228525 -0.304771
0.0388979 0.220031 -0.30572
0.0379047 0.219521 -0.305732
0.038888 0.221031 -0.305725
0.0388288 0.227031 -0.30575
0.038819 0.228031 -0.305755
0.0378159 0.228521 -0.305771
0.0379069 0.220019 -0.306235
0.0379091 0.220517 -0.306737
0.0389022 0.221027 -0.306725
0.0388924 0.222027 -0.306729
0.0388825 0.223027 -0.306733
0.0388726 0.224027 -0.306737
0.0388628 0.225027 -0.306742
0.0388529 0.226027 -0.306746
0.038843 0.227027 -0.30675
0.037828 0.228019 -0.306269
0.03784 0.227517 -0.306766
0.0379112 0.221015 -0.307239
0.0379014 0.222015 -0.307243
0.0379035 0.222513 -0.307745
0.0388967 0.223023 -0.307733
0.0388868 0.224023 -0.307737
0.0378718 0.225015 -0.307256
0.0378838 0.224513 -0.307754
0.0378619 0.226015 -0.30726
0.037852 0.227015 -0.307264
0.0379057 0.223011 -0.308247
0.0378958 0.224011 -0.308251
0.0366834 0.222069 -0.291759
0.0366735 0.223069 -0.291763
0.0357023 0.221057 -0.292269
0.0357143 0.220555 -0.292766
0.0356924 0.222057 -0.292273
0.0356825 0.223057 -0.292277
0.0356726 0.224057 -0.292281
0.0356748 0.224555 -0.292783
0.036668 0.225065 -0.292771
0.0357263 0.220053 -0.293264
0.0357383 0.219551 -0.293762
0.035677 0.225053 -0.293285
0.0356791 0.22555 -0.293788
0.0366723 0.22606 -0.293776
0.0357504 0.219049 -0.29426
0.0357624 0.218547 -0.294758
0.0367555 0.219057 -0.294746
0.0366865 0.226056 -0.294775
0.0356933 0.225546 -0.294787
0.0367697 0.219053 -0.295746
0.0357766 0.218543 -0.295757
0.0356955 0.226044 -0.29529
0.0356976 0.226542 -0.295792
0.0366908 0.227052 -0.29578
0.0357908 0.218539 -0.296757
0.0356998 0.22704 -0.296294
0.0357019 0.227538 -0.296796
0.0358049 0.218534 -0.297757
0.0357161 0.227534 -0.297796
0.035817 0.218032 -0.298255
0.035829 0.21753 -0.298753
0.0368222 0.21804 -0.298741
0.0357303 0.22753 -0.298796
0.0368363 0.218036 -0.299741
0.0358432 0.217526 -0.299753
0.0357325 0.228028 -0.299298
0.0357346 0.228526 -0.2998
0.0368505 0.218032 -0.300741
0.0358574 0.217522 -0.300753
0.0357488 0.228521 -0.3008
0.0368647 0.218028 -0.301741
0.0358715 0.217518 -0.301753
0.035763 0.228517 -0.301799
0.0368789 0.218024 -0.30274
0.0358857 0.217514 -0.302752
0.0357772 0.228513 -0.302799
0.0368931 0.21802 -0.30374
0.0358999 0.21751 -0.303752
0.0368832 0.21902 -0.303745
0.0357914 0.228509 -0.303799
0.0359021 0.218008 -0.304254
0.0359042 0.218506 -0.304757
0.0368974 0.219015 -0.304745
0.0358056 0.228505 -0.304799
0.0369116 0.219011 -0.305744
0.0359184 0.218501 -0.305756
0.0358296 0.227501 -0.305795
0.0358176 0.228003 -0.305297
0.0368228 0.228011 -0.305783
0.0369258 0.219007 -0.306744
0.0359326 0.218497 -0.306756
0.0369159 0.220007 -0.306749
0.0358438 0.227497 -0.306795
0.0359348 0.218995 -0.307258
0.0359369 0.219493 -0.30776
0.0369301 0.220003 -0.307748
0.0369202 0.221003 -0.307753
0.0369104 0.222003 -0.307757
0.0368807 0.225003 -0.30777
0.0368709 0.226003 -0.307774
0.0358678 0.226493 -0.30779
0.0358558 0.226995 -0.307292
0.0359391 0.219991 -0.308263
0.0359292 0.220991 -0.308267
0.0359314 0.221489 -0.308769
0.0369245 0.221999 -0.308757
0.0359095 0.222991 -0.308275
0.0359215 0.222489 -0.308773
0.0358996 0.223991 -0.30828
0.0358897 0.224991 -0.308284
0.0358799 0.225991 -0.308288
0.0359335 0.221987 -0.309271
0.0347112 0.221045 -0.292783
0.0347014 0.222045 -0.292787
0.0346915 0.223045 -0.292791
0.0346816 0.224045 -0.292795
0.0337301 0.220033 -0.293292
0.0337421 0.219531 -0.29379
0.0337202 0.221033 -0.293297
0.0337104 0.222033 -0.293301
0.0337005 0.223033 -0.293305
0.0346958 0.224041 -0.293795
0.0337027 0.223531 -0.293807
0.034686 0.225041 -0.2938
0.0337542 0.219029 -0.294288
0.0337662 0.218527 -0.294786
0.0337048 0.224029 -0.294309
0.0347001 0.225036 -0.294799
0.033707 0.224527 -0.294811
0.0337782 0.218025 -0.295284
0.0337902 0.217523 -0.295781
0.0347834 0.218033 -0.295769
0.0337091 0.225025 -0.295313
0.0337113 0.225522 -0.295816
0.0347045 0.226032 -0.295804
0.0347976 0.218029 -0.296769
0.0338044 0.217519 -0.296781
0.0337134 0.22602 -0.296318
0.0337036 0.22702 -0.296322
0.0337057 0.227518 -0.296824
0.0348118 0.218025 -0.297769
0.0338186 0.217515 -0.297781
0.0347131 0.228024 -0.297812
0.0337079 0.228016 -0.297326
0.0337101 0.228514 -0.297828
0.0338328 0.217511 -0.298781
0.0347273 0.22802 -0.298812
0.0337242 0.22851 -0.298828
0.0338448 0.217008 -0.299279
0.0338568 0.216506 -0.299777
0.03485 0.217016 -0.299765
0.0337384 0.228506 -0.299828
0.0348642 0.217012 -0.300765
0.033871 0.216502 -0.300777
0.0337526 0.228502 -0.300828
0.0348784 0.217008 -0.301765
0.0338852 0.216498 -0.301777
0.0337668 0.228498 -0.301828
0.0348926 0.217004 -0.302764
0.0338994 0.216494 -0.302776
0.033781 0.228493 -0.302828
0.0349067 0.217 -0.303764
0.0339136 0.21649 -0.303776
0.0337952 0.228489 -0.303827
0.0349209 0.216996 -0.304764
0.0339278 0.216486 -0.304776
0.0349111 0.217996 -0.304768
0.0338094 0.228485 -0.304827
0.0349351 0.216992 -0.305764
0.0339419 0.216482 -0.305776
0.0349252 0.217992 -0.305768
0.0348266 0.227991 -0.305811
0.0338235 0.228481 -0.305827
0.0339441 0.21698 -0.306278
0.0339463 0.217478 -0.30678
0.0349394 0.217987 -0.306768
0.0348408 0.227987 -0.306811
0.0338377 0.228477 -0.306827
0.0349536 0.217983 -0.307768
0.0339604 0.217473 -0.30778
0.0349438 0.218983 -0.307772
0.0348648 0.226983 -0.307807
0.0338618 0.227473 -0.307823
0.0338497 0.227975 -0.307325
0.0339626 0.217971 -0.308282
0.0339648 0.218469 -0.308784
0.0349579 0.218979 -0.308772
0.0349481 0.219979 -0.308777
0.0349382 0.220979 -0.308781
0.0349185 0.222979 -0.308789
0.0349086 0.223979 -0.308794
0.0348987 0.224979 -0.308798
0.0348889 0.225979 -0.308802
0.0338858 0.226469 -0.308818
0.0338738 0.226971 -0.308321
0.0339669 0.218967 -0.309286
0.0339571 0.219967 -0.309291
0.0339592 0.220465 -0.309793
0.0349524 0.220975 -0.309781
0.0349425 0.221975 -0.309785
0.0349327 0.222975 -0.309789
0.0349228 0.223975 -0.309794
0.0349129 0.224975 -0.309798
0.0338979 0.225967 -0.309316
0.0339099 0.225465 -0.309814
0.0339614 0.220963 -0.310295
0.0339515 0.221963 -0.310299
0.0339416 0.222963 -0.310303
0.0339318 0.223963 -0.310308
0.0339219 0.224963 -0.310312
0.0327391 0.220021 -0.293806
0.0327292 0.221021 -0.293811
0.0327194 0.222021 -0.293815
0.0327095 0.223021 -0.293819
0.031758 0.219009 -0.294316
0.03177 0.218507 -0.294814
0.0317481 0.220009 -0.294321
0.0317382 0.221009 -0.294325
0.0317283 0.222009 -0.294329
0.0317185 0.223009 -0.294333
0.0317206 0.223507 -0.294835
0.0327138 0.224017 -0.294823
0.031782 0.218005 -0.295312
0.031794 0.217503 -0.29581
0.0317228 0.224005 -0.295337
0.0317129 0.225005 -0.295342
0.0317151 0.225503 -0.295844
0.0318082 0.217499 -0.29681
0.0317172 0.226001 -0.296346
0.0317074 0.227 -0.29635
0.0317095 0.227498 -0.296852
0.0318202 0.216997 -0.297307
0.0318323 0.216495 -0.297805
0.0328254 0.217005 -0.297793
0.0317117 0.227996 -0.297354
0.0317139 0.228494 -0.297856
0.0328396 0.217001 -0.298793
0.0318465 0.216491 -0.298805
0.0327212 0.229 -0.298844
0.031716 0.228992 -0.298358
0.0317182 0.22949 -0.298861
0.0318606 0.216487 -0.299805
0.0327354 0.228996 -0.299844
0.0317324 0.229486 -0.29986
0.0318727 0.215985 -0.300303
0.0318847 0.215483 -0.300801
0.0328779 0.215992 -0.300789
0.0327496 0.228992 -0.300844
0.0317465 0.229482 -0.30086
0.032892 0.215988 -0.301789
0.0318989 0.215478 -0.301801
0.0327638 0.228988 -0.301844
0.0317607 0.229478 -0.30186
0.0329062 0.215984 -0.302788
0.0319131 0.215474 -0.3028
0.0317848 0.228474 -0.302856
0.0317728 0.228976 -0.302358
0.0329204 0.21598 -0.303788
0.0319272 0.21547 -0.3038
0.031799 0.228469 -0.303856
0.0329346 0.215976 -0.304788
0.0319414 0.215466 -0.3048
0.031823 0.227465 -0.304851
0.031811 0.227967 -0.304354
0.0328162 0.227975 -0.304839
0.0329488 0.215972 -0.305788
0.0319556 0.215462 -0.3058
0.0318471 0.226461 -0.305847
0.031835 0.226963 -0.305349
0.0328402 0.226971 -0.305835
0.0328304 0.227971 -0.305839
0.032963 0.215968 -0.306788
0.0319698 0.215458 -0.3068
0.0329531 0.216968 -0.306792
0.0328544 0.226967 -0.306835
0.0318613 0.226457 -0.306847
0.0328446 0.227967 -0.306839
0.0329771 0.215964 -0.307788
0.031984 0.215454 -0.3078
0.0329673 0.216964 -0.307792
0.0318853 0.225453 -0.307842
0.0318733 0.225955 -0.307345
0.0328785 0.225963 -0.307831
0.0328686 0.226963 -0.307835
0.0319861 0.215952 -0.308302
0.0319883 0.21645 -0.308804
0.0329815 0.216959 -0.308792
0.0329716 0.217959 -0.308796
0.0319094 0.224449 -0.308838
0.0318973 0.224951 -0.30834
0.0329025 0.224959 -0.308826
0.0328927 0.225959 -0.30883
0.0319905 0.216947 -0.309306
0.0319926 0.217445 -0.309808
0.0329858 0.217955 -0.309796
0.0329759 0.218955 -0.3098
0.032966 0.219955 -0.309805
0.0319334 0.223445 -0.309834
0.0319214 0.223947 -0.309336
0.0329266 0.223955 -0.309822
0.0329167 0.224955 -0.309826
0.0319948 0.217943 -0.31031
0.0319849 0.218943 -0.310315
0.031975 0.219943 -0.310319
0.0319652 0.220943 -0.310323
0.0319553 0.221943 -0.310327
0.0319454 0.222943 -0.310332
0.0322254 0.208903 -0.320271
0.0322375 0.208401 -0.320769
0.0332306 0.20891 -0.320757
0.0332208 0.20991 -0.320761
0.0322156 0.209902 -0.320275
0.0332109 0.21091 -0.320765
0.0322057 0.210902 -0.320279
0.033201 0.21191 -0.320769
0.0321958 0.211902 -0.320284
0.032198 0.2124 -0.320786
0.0322495 0.207898 -0.321266
0.0322615 0.207396 -0.321764
0.0332547 0.207906 -0.321752
0.0332448 0.208906 -0.321757
0.0332349 0.209906 -0.321761
0.0332251 0.210906 -0.321765
0.0332152 0.211906 -0.321769
0.0322122 0.212396 -0.321786
0.0322834 0.205894 -0.322258
0.0322954 0.205392 -0.322756
0.0332886 0.205902 -0.322744
0.0332787 0.206902 -0.322748
0.0322735 0.206894 -0.322262
0.0332689 0.207902 -0.322752
0.033259 0.208902 -0.322756
0.0322439 0.209894 -0.322275
0.032256 0.209392 -0.322773
0.0322341 0.210894 -0.322279
0.0322242 0.211894 -0.322283
0.0323075 0.20489 -0.323253
0.0323195 0.204388 -0.323751
0.0333126 0.204898 -0.323739
0.0333028 0.205898 -0.323743
0.0332929 0.206898 -0.323748
0.033283 0.207898 -0.323752
0.0332732 0.208898 -0.323756
0.0322701 0.209388 -0.323773
0.0323414 0.202886 -0.324245
0.0323534 0.202384 -0.324743
0.0333466 0.202894 -0.324731
0.0333367 0.203894 -0.324735
0.0323315 0.203886 -0.324249
0.0333268 0.204894 -0.324739
0.033317 0.205894 -0.324743
0.0333071 0.206894 -0.324748
0.032292 0.207886 -0.324266
0.0323041 0.207384 -0.324764
0.0322822 0.208886 -0.32427
0.0323654 0.201882 -0.32524
0.0323775 0.20138 -0.325738
0.0333706 0.20189 -0.325726
0.0333607 0.20289 -0.32573
0.0333509 0.20389 -0.325735
0.0323358 0.204882 -0.325253
0.0323478 0.20438 -0.325751
0.032326 0.205882 -0.325257
0.0323161 0.206882 -0.325262
0.0323895 0.200878 -0.326236
0.0324015 0.200376 -0.326734
0.0333947 0.200886 -0.326722
0.0333848 0.201886 -0.326726
0.0333749 0.202886 -0.32673
0.0323599 0.203878 -0.326249
0.0323719 0.203376 -0.326747
0.0324135 0.199874 -0.327232
0.0324256 0.199372 -0.327729
0.0334187 0.199882 -0.327717
0.0334089 0.200882 -0.327722
0.0323938 0.201874 -0.32724
0.0324058 0.201372 -0.327738
0.0323839 0.202874 -0.327244
0.0324277 0.19987 -0.328232
0.0324178 0.20087 -0.328236
0.0297617 0.218989 -0.294344
0.0297738 0.218487 -0.294842
0.0297519 0.219989 -0.294349
0.029742 0.220989 -0.294353
0.0297321 0.221989 -0.294357
0.0297343 0.222487 -0.294859
0.0307275 0.222997 -0.294847
0.0297858 0.217985 -0.29534
0.0297978 0.217483 -0.295838
0.0297365 0.222985 -0.295361
0.0297266 0.223985 -0.295366
0.0297167 0.224985 -0.29537
0.0307121 0.225993 -0.29586
0.0297069 0.225985 -0.295374
0.029709 0.226483 -0.295876
0.0298099 0.216981 -0.296336
0.0298219 0.216479 -0.296834
0.030815 0.216989 -0.296822
0.0297112 0.226981 -0.296378
0.0307065 0.227988 -0.296868
0.0297013 0.227981 -0.296383
0.0297035 0.228478 -0.296885
0.0298361 0.216475 -0.297833
0.0307108 0.228984 -0.297873
0.0297056 0.228976 -0.297387
0.0297078 0.229474 -0.297889
0.0298481 0.215973 -0.298331
0.0298601 0.215471 -0.298829
0.0308533 0.215981 -0.298817
0.0307151 0.22998 -0.298877
0.0297099 0.229972 -0.298391
0.0297121 0.23047 -0.298893
0.0296803 0.232972 -0.298404
0.0296924 0.23247 -0.298902
0.0306855 0.23298 -0.29889
0.0306757 0.23398 -0.298894
0.0296705 0.233972 -0.298408
0.0306658 0.23498 -0.298898
0.0296606 0.234972 -0.298412
0.0296628 0.23547 -0.298914
0.0308675 0.215977 -0.299817
0.0298743 0.215467 -0.299829
0.0307293 0.229976 -0.299877
0.0297143 0.230968 -0.299395
0.0307195 0.230976 -0.299881
0.0307096 0.231976 -0.299885
0.0297044 0.231968 -0.299399
0.0306997 0.232976 -0.299889
0.0306899 0.233976 -0.299894
0.03068 0.234976 -0.299898
0.029677 0.235466 -0.299914
0.0298863 0.214965 -0.300327
0.0298984 0.214463 -0.300825
0.0308915 0.214973 -0.300813
0.0307435 0.229972 -0.300877
0.0307336 0.230972 -0.300881
0.0307238 0.231972 -0.300885
0.0307139 0.232972 -0.300889
0.030704 0.233972 -0.300894
0.029689 0.234964 -0.300412
0.029701 0.234462 -0.30091
0.0309057 0.214969 -0.301813
0.0299125 0.214459 -0.301824
0.0307577 0.229968 -0.301876
0.0307478 0.230968 -0.301881
0.030738 0.231968 -0.301885
0.0307281 0.232968 -0.301889
0.029713 0.23396 -0.301408
0.0297251 0.233458 -0.301905
0.0309199 0.214964 -0.302812
0.0299267 0.214455 -0.302824
0.0307817 0.228964 -0.302872
0.0307719 0.229964 -0.302876
0.030762 0.230964 -0.302881
0.0307521 0.231963 -0.302885
0.0297371 0.232956 -0.302403
0.0297491 0.232454 -0.302901
0.0299387 0.213953 -0.303322
0.0299508 0.21345 -0.30382
0.0309439 0.21396 -0.303808
0.0309341 0.21496 -0.303812
0.0307959 0.22896 -0.303872
0.0307861 0.229959 -0.303876
0.0307762 0.230959 -0.303881
0.0297611 0.231951 -0.303399
0.0297732 0.231449 -0.303897
0.0309581 0.213956 -0.304808
0.029965 0.213446 -0.30482
0.0309483 0.214956 -0.304812
0.03082 0.227955 -0.304868
0.0298169 0.228446 -0.304884
0.0298049 0.228948 -0.304386
0.0297951 0.229947 -0.30439
0.0297852 0.230947 -0.304395
0.0309723 0.213952 -0.305808
0.0299791 0.213442 -0.30582
0.0309624 0.214952 -0.305812
0.0298509 0.226441 -0.305875
0.0298388 0.226944 -0.305377
0.029829 0.227943 -0.305382
0.0309865 0.213948 -0.306808
0.0299933 0.213438 -0.30682
0.0309766 0.214948 -0.306812
0.0298848 0.224437 -0.306867
0.0298728 0.22494 -0.306369
0.030878 0.224947 -0.306855
0.0298629 0.225939 -0.306373
0.0308681 0.225947 -0.306859
0.0310007 0.213944 -0.307808
0.0300075 0.213434 -0.30782
0.0309908 0.214944 -0.307812
0.0299187 0.222433 -0.307858
0.0299067 0.222936 -0.30736
0.0309119 0.222943 -0.307846
0.0298968 0.223935 -0.307364
0.030902 0.223943 -0.30785
0.0308921 0.224943 -0.307854
0.0310149 0.21394 -0.308807
0.0300217 0.21343 -0.308819
0.031005 0.21494 -0.308812
0.0309951 0.21594 -0.308816
0.0299625 0.21943 -0.308845
0.0299505 0.219932 -0.308347
0.0309557 0.219939 -0.308833
0.0299406 0.220932 -0.308351
0.0309458 0.220939 -0.308837
0.0299307 0.221931 -0.308356
0.0309359 0.221939 -0.308842
0.0309261 0.222939 -0.308846
0.0309162 0.223939 -0.30885
0.0300239 0.213928 -0.309322
0.030014 0.214928 -0.309326
0.0300161 0.215426 -0.309828
0.0310093 0.215936 -0.309816
0.0309994 0.216935 -0.30982
0.0299865 0.218425 -0.309841
0.0299745 0.218928 -0.309343
0.0309797 0.218935 -0.309829
0.0309698 0.219935 -0.309833
0.03096 0.220935 -0.309837
0.0309501 0.221935 -0.309841
0.0309402 0.222935 -0.309846
0.0300183 0.215924 -0.31033
0.0300084 0.216923 -0.310334
0.0299986 0.217923 -0.310338
0.0301811 0.210891 -0.318308
0.0301931 0.210389 -0.318806
0.0311863 0.210899 -0.318794
0.0311764 0.211899 -0.318798
0.0301713 0.211891 -0.318312
0.0301734 0.212389 -0.318814
0.030215 0.208887 -0.319299
0.0302271 0.208385 -0.319797
0.0312202 0.208895 -0.319785
0.0312104 0.209895 -0.319789
0.0302052 0.209887 -0.319303
0.0312005 0.210895 -0.319793
0.0311906 0.211895 -0.319798
0.0301756 0.212887 -0.319316
0.0311808 0.212894 -0.319802
0.0311709 0.213894 -0.319806
0.0301657 0.213887 -0.31932
0.0301679 0.214384 -0.319823
0.0302391 0.207883 -0.320295
0.0302511 0.207381 -0.320793
0.0312443 0.207891 -0.320781
0.0311949 0.21289 -0.320802
0.0311851 0.21389 -0.320806
0.030182 0.21438 -0.320822
0.0302631 0.206879 -0.32129
0.0302752 0.206377 -0.321788
0.0312683 0.206887 -0.321776
0.0302258 0.211376 -0.32181
0.0302138 0.211878 -0.321312
0.031219 0.211886 -0.321798
0.0302039 0.212878 -0.321316
0.0301941 0.213878 -0.32132
0.0302872 0.205875 -0.322286
0.0302992 0.205373 -0.322784
0.0312529 0.209882 -0.322789
0.0302499 0.210372 -0.322805
0.0302379 0.210874 -0.322307
0.0303211 0.203871 -0.323277
0.0303331 0.203369 -0.323775
0.0313263 0.203878 -0.323763
0.0303112 0.204871 -0.323282
0.0302838 0.208368 -0.323797
0.0302718 0.20887 -0.323299
0.031277 0.208878 -0.323785
0.0302619 0.20987 -0.323303
0.0303452 0.202867 -0.324273
0.0303572 0.202365 -0.324771
0.0303079 0.207364 -0.324792
0.0302958 0.207866 -0.324294
0.0303791 0.200863 -0.325264
0.0303911 0.200361 -0.325762
0.0313843 0.20087 -0.32575
0.0303692 0.201863 -0.325269
0.0313448 0.20487 -0.325767
0.0313349 0.20587 -0.325772
0.0303319 0.20636 -0.325788
0.0303199 0.206862 -0.32529
0.030413 0.198859 -0.326256
0.030425 0.198357 -0.326754
0.0314182 0.198866 -0.326742
0.0314083 0.199866 -0.326746
0.0304031 0.199859 -0.32626
0.0313689 0.203866 -0.326763
0.031359 0.204866 -0.326767
0.0303439 0.205858 -0.326286
0.030356 0.205356 -0.326783
0.0314324 0.198862 -0.327741
0.0304392 0.198352 -0.327753
0.0314028 0.201862 -0.327754
0.0313929 0.202862 -0.327759
0.0303899 0.203352 -0.327775
0.0303779 0.203854 -0.327277
0.030368 0.204854 -0.327281
0.0304414 0.19885 -0.328256
0.0304315 0.19985 -0.32826
0.0304216 0.20085 -0.328264
0.0304118 0.20185 -0.328268
0.0304019 0.20285 -0.328273
0.0277655 0.21897 -0.294373
0.0277776 0.218467 -0.294871
0.0277557 0.219969 -0.294377
0.0277458 0.220969 -0.294381
0.0277359 0.221969 -0.294386
0.0287313 0.222977 -0.294876
0.0277261 0.222969 -0.29439
0.0287214 0.223977 -0.29488
0.0277162 0.223969 -0.294394
0.0287115 0.224977 -0.294884
0.0277063 0.224969 -0.294398
0.0287017 0.225977 -0.294888
0.0276965 0.225969 -0.294403
0.0286918 0.226977 -0.294893
0.0276866 0.226969 -0.294407
0.0276888 0.227467 -0.294909
0.0277995 0.216966 -0.295364
0.0278115 0.216463 -0.295862
0.0288047 0.216973 -0.29585
0.0277896 0.217965 -0.295368
0.028706 0.226973 -0.295893
0.0276909 0.227965 -0.295411
0.0286961 0.227973 -0.295897
0.0286863 0.228973 -0.295901
0.0276811 0.228965 -0.295415
0.0276832 0.229463 -0.295917
0.0278257 0.216459 -0.296862
0.0287004 0.228969 -0.296901
0.0276854 0.229961 -0.296419
0.0286906 0.229968 -0.296905
0.0286807 0.230968 -0.29691
0.0276755 0.230961 -0.296424
0.0286708 0.231968 -0.296914
0.0276656 0.231961 -0.296428
0.028661 0.232968 -0.296918
0.0276558 0.23296 -0.296432
0.0286511 0.233968 -0.296922
0.0276459 0.23396 -0.296436
0.0276481 0.234458 -0.296939
0.0278377 0.215957 -0.29736
0.0278497 0.215455 -0.297857
0.0288429 0.215965 -0.297845
0.0287048 0.229964 -0.297905
0.0286949 0.230964 -0.297909
0.028685 0.231964 -0.297914
0.0286752 0.232964 -0.297918
0.0286653 0.233964 -0.297922
0.0276502 0.234956 -0.297441
0.0286554 0.234964 -0.297926
0.0276524 0.235454 -0.297943
0.0278618 0.214953 -0.298355
0.0278738 0.214451 -0.298853
0.0288669 0.214961 -0.298841
0.0287091 0.23096 -0.298909
0.0286992 0.23196 -0.298914
0.0276666 0.23545 -0.298943
0.0278858 0.213949 -0.299351
0.0278978 0.213447 -0.299849
0.028891 0.213957 -0.299837
0.0288811 0.214957 -0.299841
0.0287035 0.232956 -0.299918
0.0277104 0.232446 -0.29993
0.0276983 0.232948 -0.299432
0.0276885 0.233948 -0.299436
0.0286937 0.233956 -0.299922
0.0276786 0.234948 -0.29944
0.0286838 0.234956 -0.299926
0.0279099 0.212945 -0.300346
0.0279219 0.212443 -0.300844
0.0289151 0.212953 -0.300832
0.0289052 0.213953 -0.300837
0.0287177 0.232952 -0.300918
0.0277245 0.232442 -0.30093
0.0287078 0.233952 -0.300922
0.0279339 0.211941 -0.301342
0.0279459 0.211439 -0.30184
0.0289391 0.211949 -0.301828
0.0289292 0.212949 -0.301832
0.0289194 0.213949 -0.301836
0.0277585 0.230438 -0.301921
0.0277464 0.23094 -0.301423
0.0287516 0.230948 -0.301909
0.0277366 0.23194 -0.301427
0.0287418 0.231948 -0.301913
0.0287319 0.232948 -0.301917
0.0289533 0.211945 -0.302828
0.0279601 0.211435 -0.30284
0.0289434 0.212945 -0.302832
0.0289336 0.213945 -0.302836
0.0277825 0.229434 -0.302917
0.0277705 0.229936 -0.302419
0.0287757 0.229944 -0.302905
0.0287658 0.230944 -0.302909
0.0287559 0.231944 -0.302913
0.0281103 0.196934 -0.303278
0.0281223 0.196432 -0.303776
0.0291155 0.196942 -0.303764
0.0291056 0.197941 -0.303768
0.0281004 0.197934 -0.303282
0.0281026 0.198432 -0.303784
0.0279721 0.210933 -0.303338
0.0279842 0.210431 -0.303835
0.0289773 0.210941 -0.303823
0.0289675 0.211941 -0.303828
0.0289576 0.212941 -0.303832
0.0278066 0.22843 -0.303912
0.0277945 0.228932 -0.303414
0.0287997 0.22894 -0.3039
0.0287899 0.22994 -0.303904
0.02878 0.23094 -0.303909
0.0281245 0.19693 -0.304278
0.0281146 0.19793 -0.304282
0.0289915 0.210937 -0.304823
0.0279984 0.210427 -0.304835
0.0289817 0.211937 -0.304828
0.0289718 0.212936 -0.304832
0.0278306 0.227426 -0.304908
0.0278186 0.227928 -0.30441
0.0288238 0.227936 -0.304896
0.0280104 0.209925 -0.305333
0.0280224 0.209423 -0.305831
0.0290156 0.209933 -0.305819
0.0290057 0.210932 -0.305823
0.0289958 0.211932 -0.305828
0.028986 0.212932 -0.305832
0.0278645 0.225422 -0.305899
0.0278525 0.225924 -0.305401
0.0288577 0.225932 -0.305887
0.0278426 0.226924 -0.305406
0.0290298 0.209928 -0.306819