<VTKFile type="UnstructuredGrid" version="0.1" byte_order="BigEndian">
  <UnstructuredGrid>
    <Piece NumberOfPoints="15886" NumberOfCells="31772">
      <PointData>
        <DataArray type="Float64" Name="position" NumberOfComponents="3" format="ascii">
0.0480684 0.23982 -0.288867
0.048075 0.239322 -0.289369
0.049073 0.239822 -0.289355
0.0490727 0.240822 -0.289351
0.0480682 0.24082 -0.288863
0.0480744 0.241322 -0.289361
0.0490858 0.239826 -0.290355
0.0480877 0.239326 -0.290369
0.0490855 0.240826 -0.290351
0.0480872 0.241326 -0.290361
0.0490985 0.239831 -0.291355
0.0481005 0.23933 -0.291369
0.0490983 0.240831 -0.29135
0.0480934 0.241828 -0.290859
0.049098 0.241831 -0.291346
0.0480997 0.24233 -0.291357
0.0491113 0.239835 -0.292354
0.0481133 0.239334 -0.292369
0.049111 0.240835 -0.29235
0.0481062 0.241832 -0.291859
0.0481127 0.241334 -0.292361
0.0491241 0.239839 -0.293354
0.048126 0.239339 -0.293369
0.0491238 0.240839 -0.29335
0.0481255 0.241339 -0.293361
0.0481323 0.239841 -0.293867
0.048132 0.240841 -0.293863
0.0460596 0.238816 -0.287897
0.0460661 0.238318 -0.288399
0.0470642 0.238818 -0.288384
0.0470639 0.239818 -0.28838
0.0460593 0.239816 -0.287893
0.0470636 0.240818 -0.288376
0.0460591 0.240816 -0.287889
0.0460653 0.241318 -0.288387
0.0460726 0.23782 -0.288901
0.0460792 0.237322 -0.289403
0.0470772 0.237822 -0.289388
0.0470769 0.238822 -0.289384
0.0470761 0.241822 -0.289372
0.0460715 0.24182 -0.288885
0.0460778 0.242322 -0.289383
0.04709 0.237826 -0.290388
0.0460919 0.237326 -0.290403
0.0470897 0.238826 -0.290384
0.0470889 0.241826 -0.290372
0.0460906 0.242326 -0.290383
0.0471027 0.23783 -0.291388
0.0461047 0.23733 -0.291403
0.0471025 0.23883 -0.291384
0.0461033 0.24233 -0.291383
0.0471155 0.237834 -0.292388
0.0461175 0.237334 -0.292403
0.0471152 0.238834 -0.292384
0.0471144 0.241834 -0.292372
0.0461161 0.242334 -0.292382
0.0471283 0.237838 -0.293388
0.0461303 0.237338 -0.293403
0.047128 0.238838 -0.293384
0.0471272 0.241838 -0.293372
0.0461289 0.242338 -0.293382
0.0471411 0.237842 -0.294388
0.046143 0.237342 -0.294403
0.0471408 0.238842 -0.294384
0.0471405 0.239842 -0.29438
0.0471402 0.240842 -0.294376
0.04714 0.241842 -0.294372
0.0461417 0.242342 -0.294382
0.0471538 0.237847 -0.295388
0.0461558 0.237346 -0.295403
0.0471536 0.238847 -0.295384
0.0471533 0.239846 -0.29538
0.047153 0.240846 -0.295376
0.0471527 0.241846 -0.295371
0.0461544 0.242346 -0.295382
0.0471666 0.237851 -0.296388
0.0461686 0.23735 -0.296403
0.0471663 0.238851 -0.296384
0.0471661 0.239851 -0.29638
0.0471658 0.240851 -0.296375
0.0471655 0.241851 -0.296371
0.0461672 0.24235 -0.296382
0.0461748 0.237852 -0.2969
0.0461811 0.238354 -0.297398
0.0471791 0.238855 -0.297384
0.0471788 0.239855 -0.297379
0.0471786 0.240855 -0.297375
0.0471783 0.241855 -0.297371
0.04618 0.242354 -0.297382
0.0461873 0.238857 -0.297896
0.0461936 0.239359 -0.298394
0.0471916 0.239859 -0.298379
0.0471913 0.240859 -0.298375
0.0461865 0.241856 -0.297884
0.046193 0.241359 -0.298386
0.0461998 0.239861 -0.298892
0.0461995 0.240861 -0.298888
0.0440635 0.237815 -0.287927
0.0440701 0.237317 -0.288429
0.0450681 0.237817 -0.288414
0.0440633 0.238815 -0.287923
0.044063 0.239815 -0.287919
0.0440627 0.240815 -0.287914
0.044069 0.241317 -0.288412
0.0440766 0.236819 -0.288931
0.0440831 0.236321 -0.289433
0.0450811 0.236822 -0.289418
0.0440752 0.241819 -0.28891
0.0440815 0.242321 -0.289408
0.0450939 0.236826 -0.290418
0.0440959 0.236325 -0.290433
0.0440942 0.242325 -0.290408
0.0451067 0.23683 -0.291418
0.0441086 0.236329 -0.291433
0.044107 0.242329 -0.291408
0.0441152 0.235832 -0.291935
0.0441217 0.235334 -0.292437
0.0451197 0.235834 -0.292422
0.0451195 0.236834 -0.292418
0.0441198 0.242334 -0.292408
0.0451325 0.235838 -0.293422
0.0441345 0.235338 -0.293436
0.0451322 0.236838 -0.293418
0.0441325 0.242338 -0.293408
0.0451453 0.235842 -0.294422
0.0441472 0.235342 -0.294436
0.045145 0.236842 -0.294418
0.0441453 0.242342 -0.294408
0.045158 0.235846 -0.295422
0.04416 0.235346 -0.295436
0.0451578 0.236846 -0.295417
0.0441581 0.242346 -0.295408
0.0441663 0.235848 -0.295934
0.0441725 0.23635 -0.296432
0.0451705 0.23685 -0.296417
0.0441709 0.24235 -0.296408
0.0451833 0.236854 -0.297417
0.0441853 0.236354 -0.297432
0.045183 0.237854 -0.297413
0.0441836 0.242354 -0.297407
0.0451961 0.236858 -0.298417
0.0441981 0.236358 -0.298432
0.0451958 0.237858 -0.298413
0.0451955 0.238858 -0.298409
0.0451947 0.241858 -0.298397
0.0441964 0.242358 -0.298407
0.0442043 0.23686 -0.29893
0.0442105 0.237362 -0.299428
0.0452086 0.237862 -0.299413
0.0452083 0.238862 -0.299409
0.045208 0.239862 -0.299405
0.0452078 0.240862 -0.299401
0.0452075 0.241862 -0.299397
0.0442092 0.242362 -0.299407
0.0442168 0.237864 -0.299926
0.044223 0.238366 -0.300424
0.0452211 0.238867 -0.300409
0.0452208 0.239867 -0.300405
0.0452205 0.240867 -0.300401
0.0452203 0.241867 -0.300397
0.044222 0.242366 -0.300407
0.0442293 0.238868 -0.300921
0.044229 0.239868 -0.300917
0.0442287 0.240868 -0.300913
0.0442285 0.241868 -0.300909
0.0420672 0.237815 -0.287952
0.0420737 0.237317 -0.288454
0.0420669 0.238815 -0.287948
0.0420666 0.239815 -0.287944
0.0420664 0.240815 -0.28794
0.0420726 0.241317 -0.288438
0.0420802 0.236819 -0.288956
0.0420868 0.236321 -0.289458
0.0430834 0.241821 -0.289423
0.0420854 0.241321 -0.289438
0.0420933 0.235823 -0.28996
0.0420998 0.235325 -0.290462
0.0430978 0.235825 -0.290447
0.0420916 0.241823 -0.289936
0.0420979 0.242325 -0.290434
0.0421063 0.234827 -0.290964
0.0421129 0.234329 -0.291466
0.0431109 0.234829 -0.291451
0.0431106 0.235829 -0.291447
0.0421107 0.242329 -0.291434
0.0431237 0.234833 -0.292451
0.0421256 0.234333 -0.292466
0.0431215 0.242833 -0.292419
0.0421169 0.242831 -0.291931
0.0421232 0.243333 -0.292429
0.0431364 0.234837 -0.293451
0.0421384 0.234337 -0.293466
0.0431342 0.242837 -0.293419
0.0421359 0.243337 -0.293429
0.0431492 0.234842 -0.294451
0.0421512 0.234341 -0.294466
0.043147 0.242841 -0.294418
0.0421487 0.243341 -0.294429
0.043162 0.234846 -0.295451
0.0421639 0.234345 -0.295466
0.0431598 0.242846 -0.295418
0.0421615 0.243345 -0.295429
0.0431747 0.23485 -0.296451
0.0421767 0.23435 -0.296466
0.0431745 0.23585 -0.296447
0.0431726 0.24285 -0.296418
0.0421743 0.243349 -0.296429
0.042183 0.234852 -0.296964
0.0421892 0.235354 -0.297462
0.0431872 0.235854 -0.297447
0.0431853 0.242854 -0.297418
0.042187 0.243354 -0.297429
0.0432 0.235858 -0.298447
0.042202 0.235358 -0.298462
0.0431981 0.242858 -0.298418
0.0421998 0.243358 -0.298429
0.0432128 0.235862 -0.299447
0.0422148 0.235362 -0.299461
0.0432125 0.236862 -0.299443
0.0432109 0.242862 -0.299418
0.0422126 0.243362 -0.299429
0.042221 0.235864 -0.299959
0.0422273 0.236366 -0.300457
0.0432253 0.236866 -0.300442
0.043225 0.237866 -0.300438
0.0432236 0.242866 -0.300418
0.0422188 0.243864 -0.299927
0.0432234 0.243866 -0.300414
0.0422251 0.244366 -0.300425
0.0432381 0.23687 -0.301442
0.04224 0.23637 -0.301457
0.0432378 0.23787 -0.301438
0.0432375 0.23887 -0.301434
0.0432372 0.23987 -0.30143
0.043237 0.24087 -0.301426
0.0432367 0.24187 -0.301422
0.0432364 0.24287 -0.301418
0.0422316 0.243868 -0.300927
0.0422381 0.24337 -0.301429
0.0422463 0.236872 -0.301955
0.0422525 0.237374 -0.302453
0.0432506 0.237874 -0.302438
0.0432503 0.238874 -0.302434
0.04325 0.239874 -0.30243
0.0432497 0.240874 -0.302426
0.0432495 0.241874 -0.302422
0.0422446 0.242872 -0.301931
0.0422512 0.242374 -0.302433
0.0422588 0.237876 -0.302951
0.0422585 0.238876 -0.302947
0.0422582 0.239876 -0.302943
0.042258 0.240876 -0.302939
0.0422577 0.241876 -0.302935
0.0400709 0.237814 -0.287978
0.0400774 0.237316 -0.28848
0.0400706 0.238814 -0.287974
0.0400768 0.239316 -0.288472
0.0410749 0.239817 -0.288457
0.0410746 0.240817 -0.288453
0.0400839 0.236818 -0.288982
0.0400904 0.23632 -0.289484
0.0400831 0.239818 -0.288969
0.0400828 0.240818 -0.288965
0.0400891 0.24132 -0.289463
0.0400969 0.235822 -0.289986
0.0401035 0.235325 -0.290488
0.0400953 0.241822 -0.289961
0.0401016 0.242324 -0.290459
0.0411145 0.234829 -0.291477
0.0401162 0.235329 -0.291488
0.0401143 0.242329 -0.291459
0.0411273 0.234833 -0.292477
0.040129 0.235333 -0.292488
0.0401206 0.242831 -0.291957
0.0401268 0.243333 -0.292455
0.0401355 0.234835 -0.29299
0.0401421 0.234337 -0.293492
0.0401396 0.243337 -0.293455
0.0401548 0.234341 -0.294491
0.0401524 0.243341 -0.294455
0.0401676 0.234345 -0.295491
0.0401651 0.243345 -0.295455
0.0401804 0.234349 -0.296491
0.0411759 0.243849 -0.29644
0.0401714 0.243847 -0.295952
0.0401776 0.244349 -0.29645
0.0411912 0.234853 -0.297476
0.0401932 0.234353 -0.297491
0.0411887 0.243853 -0.29744
0.0401904 0.244353 -0.29745
0.041204 0.234857 -0.298476
0.0402059 0.234357 -0.298491
0.0412015 0.243857 -0.29844
0.0402032 0.244357 -0.29845
0.0412167 0.234862 -0.299476
0.0402187 0.234361 -0.299491
0.0412143 0.243862 -0.299439
0.040216 0.244361 -0.29945
0.0402249 0.234863 -0.299989
0.0402312 0.235365 -0.300487
0.0412292 0.235866 -0.300472
0.0402287 0.244365 -0.30045
0.041242 0.23587 -0.301472
0.040244 0.23537 -0.301487
0.0412398 0.24387 -0.301439
0.0402415 0.244369 -0.30145
0.0412548 0.235874 -0.302472
0.0402567 0.235374 -0.302487
0.0412545 0.236874 -0.302468
0.0412529 0.242874 -0.302443
0.0412526 0.243874 -0.302439
0.0402543 0.244374 -0.30245
0.040263 0.235876 -0.302985
0.0402692 0.236378 -0.303483
0.0412673 0.236878 -0.303468
0.041267 0.237878 -0.303464
0.0412667 0.238878 -0.30346
0.0412664 0.239878 -0.303455
0.0412662 0.240878 -0.303451
0.0412659 0.241878 -0.303447
0.0412656 0.242878 -0.303443
0.0402608 0.243876 -0.302952
0.0402673 0.243378 -0.303454
0.0402755 0.23688 -0.30398
0.0402752 0.23788 -0.303976
0.0402815 0.238382 -0.304474
0.0412795 0.238882 -0.304459
0.0412792 0.239882 -0.304455
0.0402744 0.24088 -0.303964
0.0402809 0.240382 -0.304466
0.0402741 0.24188 -0.30396
0.0402738 0.24288 -0.303956
0.0402877 0.238884 -0.304972
0.0402874 0.239884 -0.304968
0.0390791 0.237816 -0.28849
0.0390788 0.238816 -0.288486
0.0380876 0.236818 -0.289007
0.0380941 0.23632 -0.289509
0.0380873 0.237818 -0.289003
0.038087 0.238818 -0.288999
0.0380867 0.239818 -0.288995
0.038093 0.24032 -0.289493
0.039091 0.24082 -0.289478
0.0381006 0.235822 -0.290011
0.0381071 0.235324 -0.290513
0.0380992 0.240822 -0.289991
0.0381055 0.241324 -0.290489
0.0391035 0.241824 -0.290474
0.0381137 0.234826 -0.291015
0.0381202 0.234328 -0.291517
0.0391182 0.234828 -0.291502
0.0391163 0.241828 -0.291474
0.0381183 0.241328 -0.291489
0.039131 0.234832 -0.292502
0.038133 0.234332 -0.292517
0.0381245 0.24183 -0.291987
0.0381308 0.242332 -0.292484
0.0391288 0.242832 -0.29247
0.0381457 0.234336 -0.293517
0.038137 0.242834 -0.292982
0.0381433 0.243336 -0.29348
0.0381585 0.23434 -0.294517
0.038156 0.24334 -0.29448
0.038165 0.233843 -0.295019
0.0381715 0.233345 -0.295521
0.0391696 0.233845 -0.295506
0.0381688 0.243344 -0.29548
0.0391823 0.233849 -0.296506
0.0381843 0.233349 -0.296521
0.0381751 0.243847 -0.295978
0.0381813 0.244349 -0.296476
0.0391951 0.233853 -0.297506
0.0381971 0.233353 -0.297521
0.0381941 0.244353 -0.297476
0.0392079 0.233857 -0.298506
0.0382099 0.233357 -0.298521
0.0382068 0.244357 -0.298476
0.0392207 0.233861 -0.299506
0.0382226 0.233361 -0.299521
0.0382196 0.244361 -0.299476
0.0392334 0.233865 -0.300506
0.0382354 0.233365 -0.300521
0.0392332 0.234865 -0.300502
0.0382324 0.244365 -0.300476
0.0382417 0.233867 -0.301018
0.0382479 0.234369 -0.301516
0.0392459 0.234869 -0.301502
0.0382452 0.244369 -0.301475
0.0392587 0.234873 -0.302501
0.0382607 0.234373 -0.302516
0.0382582 0.243373 -0.302479
0.0382517 0.243871 -0.301977
0.0392562 0.243873 -0.302465
0.0392715 0.234878 -0.303501
0.0382734 0.234377 -0.303516
0.0392712 0.235878 -0.303497
0.038271 0.243377 -0.303479
0.0382797 0.234879 -0.304014
0.0382859 0.235381 -0.304512
0.039284 0.235882 -0.304497
0.0392837 0.236882 -0.304493
0.0392834 0.237882 -0.304489
0.0392826 0.240882 -0.304477
0.0392823 0.241882 -0.304473
0.038284 0.242381 -0.304483
0.0382775 0.242879 -0.303981
0.0382922 0.235883 -0.30501
0.0382919 0.236883 -0.305006
0.0382982 0.237385 -0.305504
0.0392962 0.237886 -0.305489
0.0382914 0.238883 -0.304998
0.0382979 0.238385 -0.3055
0.0382911 0.239883 -0.304994
0.0382908 0.240883 -0.304989
0.0382906 0.241883 -0.304985
0.0383044 0.237888 -0.306002
0.0370958 0.23682 -0.28952
0.0370955 0.23782 -0.289516
0.0370952 0.23882 -0.289512
0.037095 0.23982 -0.289508
0.0361043 0.235822 -0.290037
0.0361108 0.235324 -0.290539
0.036104 0.236822 -0.290033
0.0361037 0.237822 -0.290029
0.0361035 0.238822 -0.290024
0.0371077 0.239824 -0.290508
0.0361097 0.239324 -0.290522
0.0371075 0.240824 -0.290504
0.0361173 0.234826 -0.291041
0.0361238 0.234328 -0.291543
0.0361159 0.239826 -0.29102
0.0371202 0.240828 -0.291503
0.0361222 0.240328 -0.291518
0.0361304 0.23383 -0.292045
0.0361369 0.233332 -0.292547
0.0371349 0.233832 -0.292532
0.0361284 0.24083 -0.292016
0.0361347 0.241332 -0.292514
0.0371327 0.241832 -0.292499
0.0371477 0.233836 -0.293532
0.0361497 0.233336 -0.293547
0.0361409 0.241834 -0.293012
0.0361407 0.242834 -0.293008
0.0361469 0.243336 -0.293506
0.0371605 0.23384 -0.294532
0.0361624 0.23334 -0.294547
0.0371577 0.24384 -0.294491
0.0361532 0.243838 -0.294004
0.0361594 0.24434 -0.294502
0.0361752 0.233344 -0.295546
0.0371705 0.243844 -0.295491
0.0361722 0.244344 -0.295502
0.0361817 0.232846 -0.296048
0.0361882 0.232348 -0.29655
0.0371863 0.232848 -0.296536
0.036185 0.244348 -0.296501
0.0371991 0.232853 -0.297536
0.036201 0.232352 -0.29755
0.0361977 0.244352 -0.297501
0.0372118 0.232857 -0.298536
0.0362138 0.232356 -0.29855
0.0362105 0.244356 -0.298501
0.0372246 0.232861 -0.299535
0.0362266 0.232361 -0.29955
0.0362233 0.24436 -0.299501
0.0372374 0.232865 -0.300535
0.0362393 0.232365 -0.30055
0.0362361 0.244364 -0.300501
0.0372501 0.232869 -0.301535
0.0362521 0.232369 -0.30155
0.0372499 0.233869 -0.301531
0.0362488 0.244369 -0.301501
0.0372629 0.232873 -0.302535
0.0362649 0.232373 -0.30255
0.0372626 0.233873 -0.302531
0.0372599 0.243873 -0.30249
0.0362616 0.244373 -0.302501
0.0362711 0.232875 -0.303048
0.0362774 0.233377 -0.303546
0.0372754 0.233877 -0.303531
0.0372727 0.243877 -0.30349
0.0362744 0.244377 -0.303501
0.0372882 0.233881 -0.304531
0.0362902 0.233381 -0.304546
0.0372879 0.234881 -0.304527
0.0372857 0.242881 -0.304494
0.0362874 0.243381 -0.304505
0.0362809 0.243879 -0.304003
0.0362964 0.233883 -0.305044
0.0363027 0.234385 -0.305542
0.0373007 0.234885 -0.305527
0.0373004 0.235885 -0.305523
0.0373001 0.236885 -0.305519
0.0372996 0.238885 -0.30551
0.0372993 0.239885 -0.305506
0.037299 0.240885 -0.305502
0.0372988 0.241885 -0.305498
0.0363005 0.242385 -0.305509
0.0362939 0.242883 -0.305007
0.0363089 0.234887 -0.306039
0.0363086 0.235887 -0.306035
0.0363149 0.236389 -0.306533
0.0373129 0.236889 -0.306518
0.0373126 0.237889 -0.306514
0.0373124 0.238889 -0.30651
0.0373121 0.239889 -0.306506
0.0373118 0.240889 -0.306502
0.036307 0.241887 -0.306011
0.0363135 0.241389 -0.306513
0.0363211 0.236891 -0.307031
0.0363209 0.237891 -0.307027
0.0363206 0.238891 -0.307023
0.0363203 0.239891 -0.307019
0.03632 0.240891 -0.307015
0.0351125 0.235823 -0.290549
0.0351122 0.236823 -0.290545
0.0351119 0.237823 -0.290541
0.0351117 0.238823 -0.290537
0.034121 0.234825 -0.291066
0.0341275 0.234327 -0.291568
0.0341207 0.235825 -0.291062
0.0341204 0.236825 -0.291058
0.0341202 0.237825 -0.291054
0.0341199 0.238825 -0.29105
0.0341261 0.239327 -0.291548
0.0351242 0.239827 -0.291533
0.034134 0.233829 -0.29207
0.0341406 0.233331 -0.292572
0.0341324 0.239829 -0.292046
0.0341321 0.240829 -0.292042
0.0341384 0.241331 -0.29254
0.0341533 0.233335 -0.293572
0.0341446 0.241833 -0.293037
0.0341443 0.242833 -0.293033
0.0341506 0.243335 -0.293531
0.0341598 0.232838 -0.294074
0.0341664 0.23234 -0.294576
0.0351644 0.23284 -0.294561
0.0341568 0.243837 -0.294029
0.0341631 0.244339 -0.294527
0.0351772 0.232844 -0.295561
0.0341791 0.232344 -0.295576
0.0351739 0.244844 -0.295512
0.0341693 0.244842 -0.295025
0.0341756 0.245344 -0.295523
0.0341919 0.232348 -0.296576
0.0351867 0.244848 -0.296512
0.0341884 0.245348 -0.296523
0.0341984 0.23185 -0.297078
0.034205 0.231352 -0.29758
0.035203 0.231852 -0.297565
0.0351994 0.244852 -0.297512
0.0342011 0.245352 -0.297523
0.0352158 0.231856 -0.298565
0.0342177 0.231356 -0.29858
0.0352122 0.244856 -0.298512
0.0342139 0.245356 -0.298523
0.0352285 0.23186 -0.299565
0.0342305 0.23136 -0.29958
0.0342269 0.24436 -0.299527
0.0342204 0.244858 -0.299025
0.0352413 0.231864 -0.300565
0.0342433 0.231364 -0.30058
0.0342397 0.244364 -0.300527
0.0352541 0.231868 -0.301565
0.034256 0.231368 -0.30158
0.0342528 0.243368 -0.301531
0.0342462 0.243866 -0.301029
0.0352508 0.243868 -0.301516
0.0352669 0.231873 -0.302565
0.0342688 0.231372 -0.30258
0.0342658 0.242372 -0.302535
0.0342593 0.24287 -0.302033
0.0352638 0.242872 -0.30252
0.0352636 0.243872 -0.302516
0.0352796 0.231877 -0.303565
0.0342816 0.231376 -0.303579
0.0352794 0.232877 -0.303561
0.0352766 0.242877 -0.30352
0.0342786 0.242376 -0.303534
0.0352763 0.243877 -0.303516
0.0352924 0.231881 -0.304565
0.0342944 0.231381 -0.304579
0.0352921 0.232881 -0.30456
0.0342916 0.24138 -0.304538
0.0342851 0.241878 -0.304036
0.0352897 0.241881 -0.304524
0.0352894 0.242881 -0.30452
0.0343006 0.231883 -0.305077
0.0343069 0.232385 -0.305575
0.0353049 0.232885 -0.30556
0.0353046 0.233885 -0.305556
0.0343047 0.240385 -0.305542
0.0342982 0.240883 -0.30504
0.0353027 0.240885 -0.305528
0.0353024 0.241885 -0.305524
0.0343131 0.232887 -0.306073
0.0343194 0.233389 -0.306571
0.0353174 0.233889 -0.306556
0.0353171 0.234889 -0.306552
0.0353168 0.235889 -0.306548
0.0343177 0.239389 -0.306546
0.0343112 0.239887 -0.306044
0.0353158 0.239889 -0.306532
0.0353155 0.240889 -0.306528
0.0343256 0.233891 -0.307069
0.0343253 0.234891 -0.307065
0.0343251 0.235891 -0.307061
0.0343248 0.236891 -0.307057
0.0343245 0.237891 -0.307053
0.0343242 0.238891 -0.307048
0.0344558 0.224932 -0.317105
0.0344623 0.224434 -0.317607
0.0354604 0.224934 -0.317592
0.0354601 0.225934 -0.317588
0.0344555 0.225932 -0.317101
0.0354598 0.226934 -0.317584
0.0344552 0.226932 -0.317097
0.0354595 0.227934 -0.31758
0.034455 0.227932 -0.317093
0.0344612 0.228434 -0.31759
0.0344688 0.223936 -0.318109
0.0344754 0.223438 -0.318611
0.0354734 0.223938 -0.318596
0.0354731 0.224938 -0.318592
0.0354728 0.225938 -0.318588
0.0354726 0.226938 -0.318584
0.0354723 0.227938 -0.31858
0.034474 0.228438 -0.31859
0.0344822 0.22194 -0.319117
0.0344887 0.221442 -0.319619
0.0354867 0.221942 -0.319604
0.0354864 0.222942 -0.3196
0.0344819 0.22294 -0.319113
0.0354862 0.223942 -0.319596
0.0354859 0.224942 -0.319592
0.0344811 0.22594 -0.319101
0.0344876 0.225442 -0.319603
0.0344808 0.22694 -0.319096
0.0344805 0.22794 -0.319092
0.0344952 0.220944 -0.320121
0.0345017 0.220446 -0.320623
0.0354998 0.220946 -0.320608
0.0354995 0.221946 -0.320604
0.0354992 0.222946 -0.3206
0.0354989 0.223946 -0.320596
0.0354987 0.224946 -0.320592
0.0345004 0.225446 -0.320602
0.0345085 0.218948 -0.321129
0.0345151 0.21845 -0.321631
0.0355131 0.21895 -0.321616
0.0355128 0.21995 -0.321612
0.0345083 0.219948 -0.321125
0.0355125 0.22095 -0.321608
0.0355123 0.22195 -0.321604
0.035512 0.22295 -0.3216
0.0345072 0.223948 -0.321109
0.0345137 0.22345 -0.321611
0.0345069 0.224948 -0.321104
0.0345216 0.217952 -0.322133
0.0345281 0.217454 -0.322635
0.0355261 0.217955 -0.32262
0.0355259 0.218955 -0.322616
0.0355256 0.219955 -0.322612
0.0345208 0.220952 -0.322121
0.0345273 0.220454 -0.322623
0.0345205 0.221952 -0.322117
0.0345202 0.222952 -0.322113
0.0345346 0.216956 -0.323137
0.0345411 0.216458 -0.323639
0.0355392 0.216959 -0.323624
0.0355389 0.217959 -0.32362
0.0355386 0.218959 -0.323616
0.0345338 0.219956 -0.323125
0.0345403 0.219458 -0.323627
0.0345477 0.21596 -0.324141
0.0345542 0.215463 -0.324643
0.0355522 0.215963 -0.324628
0.0355519 0.216963 -0.324624
0.0345471 0.21796 -0.324133
0.0345536 0.217463 -0.324635
0.0345468 0.21896 -0.324129
0.0345604 0.215965 -0.325141
0.0345602 0.216965 -0.325137
0.0321246 0.234825 -0.291092
0.0321312 0.234327 -0.291594
0.0321244 0.235825 -0.291088
0.0321241 0.236825 -0.291084
0.0321238 0.237825 -0.291079
0.0321301 0.238327 -0.291577
0.0331281 0.238827 -0.291563
0.0321377 0.233829 -0.292096
0.0321442 0.233331 -0.292598
0.0321363 0.238829 -0.292075
0.032136 0.239829 -0.292071
0.0321358 0.240829 -0.292067
0.0331401 0.241831 -0.29255
0.0321355 0.241829 -0.292063
0.0321417 0.242331 -0.292561
0.0321507 0.232833 -0.2931
0.0321573 0.232335 -0.293602
0.0331553 0.232835 -0.293587
0.032148 0.242833 -0.293059
0.0331523 0.243835 -0.293542
0.0321477 0.243833 -0.293055
0.032154 0.244335 -0.293553
0.03217 0.232339 -0.294602
0.0331648 0.244839 -0.294538
0.0321602 0.244837 -0.294051
0.0321665 0.245339 -0.294549
0.0321766 0.231841 -0.295104
0.0321831 0.231343 -0.295606
0.0331811 0.231843 -0.295591
0.0331773 0.245843 -0.295534
0.0321727 0.245841 -0.295046
0.032179 0.246343 -0.295544
0.0321719 0.248841 -0.295034
0.0321784 0.248343 -0.295536
0.0331765 0.248843 -0.295521
0.0331762 0.249843 -0.295517
0.0321716 0.249841 -0.29503
0.0331759 0.250843 -0.295513
0.0321714 0.250841 -0.295026
0.0321776 0.251343 -0.295524
0.0331939 0.231848 -0.296591
0.0321958 0.231347 -0.296606
0.03319 0.245847 -0.296534
0.0321852 0.246845 -0.296042
0.0331898 0.246847 -0.296529
0.0331895 0.247847 -0.296525
0.0321849 0.247845 -0.296038
0.0331892 0.248847 -0.296521
0.033189 0.249847 -0.296517
0.0331887 0.250847 -0.296513
0.0321904 0.251347 -0.296524
0.0322024 0.230849 -0.297108
0.0322089 0.230351 -0.29761
0.0332069 0.230852 -0.297595
0.0332028 0.245852 -0.297533
0.0332025 0.246852 -0.297529
0.0332023 0.247852 -0.297525
0.033202 0.248852 -0.297521
0.0332017 0.249852 -0.297517
0.0321969 0.250849 -0.297026
0.0322034 0.250351 -0.297528
0.0332197 0.230856 -0.298595
0.0322217 0.230356 -0.29861
0.0332156 0.245856 -0.298533
0.0332153 0.246856 -0.298529
0.033215 0.247856 -0.298525
0.0332148 0.248856 -0.298521
0.0322099 0.249853 -0.29803
0.0322165 0.249355 -0.298532
0.0332325 0.23086 -0.299595
0.0322344 0.23036 -0.299609
0.0332286 0.24486 -0.299537
0.0332284 0.24586 -0.299533
0.0332281 0.24686 -0.299529
0.0332278 0.24786 -0.299525
0.032223 0.248857 -0.299034
0.0322295 0.248359 -0.299536
0.032241 0.229862 -0.300111
0.0322475 0.229364 -0.300613
0.0332455 0.229864 -0.300599
0.0332452 0.230864 -0.300595
0.0332414 0.244864 -0.300537
0.0332411 0.245864 -0.300533
0.0332409 0.246864 -0.300529
0.032236 0.247862 -0.300038
0.0322426 0.247364 -0.30054
0.0332583 0.229868 -0.301599
0.0322603 0.229368 -0.301613
0.033258 0.230868 -0.301594
0.0332545 0.243868 -0.301541
0.0322562 0.244368 -0.301552
0.0322496 0.244866 -0.30105
0.0322494 0.245866 -0.301046
0.0322491 0.246866 -0.301042
0.0332711 0.229872 -0.302598
0.032273 0.229372 -0.302613
0.0332708 0.230872 -0.302594
0.0322695 0.242372 -0.30256
0.0322629 0.24287 -0.302058
0.0322627 0.24387 -0.302054
0.0332838 0.229876 -0.303598
0.0322858 0.229376 -0.303613
0.0332836 0.230876 -0.303594
0.0322828 0.240376 -0.303568
0.0322763 0.240874 -0.303066
0.0332808 0.240876 -0.303553
0.032276 0.241874 -0.303062
0.0332805 0.241876 -0.303549
0.0332966 0.22988 -0.304598
0.0322986 0.22938 -0.304613
0.0332963 0.23088 -0.304594
0.0322961 0.23838 -0.304576
0.0322896 0.238878 -0.304074
0.0332941 0.23888 -0.304561
0.0322893 0.239878 -0.30407
0.0332939 0.23988 -0.304557
0.0332936 0.24088 -0.304553
0.0333094 0.229884 -0.305598
0.0323113 0.229384 -0.305613
0.0333091 0.230884 -0.305594
0.0333088 0.231884 -0.30559
0.0323097 0.235384 -0.305588
0.0323032 0.235882 -0.305086
0.0333077 0.235884 -0.305574
0.0323029 0.236882 -0.305082
0.0333075 0.236884 -0.30557
0.0323026 0.237882 -0.305078
0.0333072 0.237884 -0.305565
0.0333069 0.238884 -0.305561
0.0333066 0.239884 -0.305557
0.0323176 0.229886 -0.306111
0.0323173 0.230886 -0.306107
0.0323236 0.231388 -0.306605
0.0333216 0.231889 -0.30659
0.0333213 0.232888 -0.306586
0.0323227 0.234388 -0.306592
0.0323162 0.234886 -0.30609
0.0333208 0.234888 -0.306578
0.0333205 0.235888 -0.306574
0.0333202 0.236888 -0.306569
0.03332 0.237888 -0.306565
0.0333197 0.238888 -0.306561
0.0323298 0.23189 -0.307103
0.0323295 0.23289 -0.307099
0.0323293 0.23389 -0.307094
0.0324334 0.226923 -0.315122
0.0324399 0.226425 -0.315624
0.0334379 0.226925 -0.31561
0.0334376 0.227925 -0.315605
0.0324331 0.227923 -0.315118
0.0324393 0.228425 -0.315616
0.0324467 0.224927 -0.31613
0.0324532 0.224429 -0.316632
0.0334512 0.224929 -0.316618
0.033451 0.225929 -0.316614
0.0324464 0.225927 -0.316126
0.0334507 0.226929 -0.316609
0.0334504 0.227929 -0.316605
0.0324456 0.228927 -0.316114
0.0334501 0.228929 -0.316601
0.0334499 0.229929 -0.316597
0.0324453 0.229927 -0.31611
0.0324516 0.230429 -0.316608
0.0324597 0.223931 -0.317134
0.0324663 0.223433 -0.317636
0.0334643 0.223934 -0.317622
0.0334629 0.228934 -0.317601
0.0334626 0.229934 -0.317597
0.0324643 0.230433 -0.317608
0.0324728 0.222935 -0.318138
0.0324793 0.222437 -0.31864
0.0334773 0.222938 -0.318626
0.0324779 0.227437 -0.31862
0.0324714 0.227935 -0.318118
0.033476 0.227938 -0.318605
0.0324711 0.228935 -0.318114
0.0324709 0.229935 -0.31811
0.0324858 0.22194 -0.319142
0.0324923 0.221442 -0.319644
0.0334893 0.225942 -0.319613
0.032491 0.226442 -0.319624
0.0324845 0.226939 -0.319122
0.0324991 0.219944 -0.320151
0.0325057 0.219446 -0.320653
0.0335037 0.219946 -0.320638
0.0324989 0.220944 -0.320146
0.0325043 0.224446 -0.320632
0.0324978 0.224944 -0.32013
0.0335023 0.224946 -0.320617
0.0324975 0.225944 -0.320126
0.0325122 0.218948 -0.321155
0.0325187 0.21845 -0.321657
0.0325173 0.22345 -0.321636
0.0325108 0.223948 -0.321134
0.0325255 0.216952 -0.322163
0.032532 0.216454 -0.322665
0.0335301 0.216954 -0.32265
0.0325252 0.217952 -0.322159
0.033529 0.220954 -0.322633
0.0335287 0.221954 -0.322629
0.0325304 0.222454 -0.32264
0.0325239 0.222952 -0.322138
0.0325388 0.214956 -0.323171
0.0325454 0.214458 -0.323673
0.0335434 0.214958 -0.323658
0.0335431 0.215958 -0.323654
0.0325386 0.215956 -0.323167
0.033542 0.219958 -0.323637
0.0335417 0.220958 -0.323633
0.0325369 0.221956 -0.323142
0.0325434 0.221458 -0.323644
0.0335562 0.214962 -0.324658
0.0325581 0.214462 -0.324673
0.0335553 0.217962 -0.324646
0.0335551 0.218962 -0.324641
0.0325568 0.219462 -0.324652
0.0325502 0.21996 -0.32415
0.03255 0.22096 -0.324146
0.0325644 0.214964 -0.325171
0.0325641 0.215964 -0.325166
0.0325638 0.216964 -0.325162
0.0325636 0.217964 -0.325158
0.0325633 0.218964 -0.325154
0.0301283 0.234824 -0.291117
0.0301348 0.234326 -0.291619
0.030128 0.235824 -0.291113
0.0301278 0.236824 -0.291109
0.0301275 0.237824 -0.291105
0.0311318 0.238827 -0.291588
0.0301272 0.238824 -0.291101
0.0311315 0.239827 -0.291584
0.0301269 0.239824 -0.291097
0.0311312 0.240827 -0.29158
0.0301267 0.240824 -0.291093
0.0311309 0.241827 -0.291576
0.0301264 0.241824 -0.291089
0.0311307 0.242827 -0.291572
0.0301261 0.242824 -0.291085
0.0301324 0.243326 -0.291582
0.0301416 0.232828 -0.292125
0.0301481 0.232331 -0.292627
0.0311462 0.232831 -0.292613
0.0301414 0.233828 -0.292121
0.0311434 0.242831 -0.292572
0.0301386 0.243828 -0.29208
0.0311432 0.243831 -0.292568
0.0311429 0.244831 -0.292563
0.0301383 0.244828 -0.292076
0.0301446 0.24533 -0.292574
0.0301609 0.232335 -0.293627
0.0311557 0.244835 -0.293563
0.0301508 0.245832 -0.293072
0.0311554 0.245835 -0.293559
0.0311551 0.246835 -0.293555
0.0301506 0.246832 -0.293068
0.0311548 0.247835 -0.293551
0.0301503 0.247832 -0.293064
0.0311546 0.248835 -0.293547
0.03015 0.248832 -0.29306
0.0311543 0.249835 -0.293543
0.0301497 0.249832 -0.293056
0.030156 0.250334 -0.293554
0.0301674 0.231837 -0.294129
0.030174 0.231339 -0.294631
0.031172 0.231839 -0.294616
0.0311682 0.245839 -0.294559
0.0311679 0.246839 -0.294555
0.0311676 0.247839 -0.294551
0.0311673 0.248839 -0.294547
0.0311671 0.249839 -0.294543
0.0301622 0.250837 -0.294052
0.0311668 0.250839 -0.294539
0.0301685 0.251339 -0.294549
0.0301805 0.230841 -0.295133
0.030187 0.230343 -0.295635
0.031185 0.230843 -0.29562
0.0311807 0.246843 -0.295555
0.0311804 0.247843 -0.295551
0.0301813 0.251343 -0.295549
0.0301935 0.229845 -0.296137
0.0302001 0.229347 -0.296639
0.0311981 0.229847 -0.296624
0.0311978 0.230847 -0.29662
0.0311929 0.248847 -0.296547
0.0301949 0.248347 -0.296562
0.0301883 0.248845 -0.29606
0.0301881 0.249845 -0.296055
0.0311926 0.249847 -0.296543
0.0301878 0.250845 -0.296051
0.0311923 0.250847 -0.296539
0.0302066 0.228849 -0.297141
0.0302131 0.228351 -0.297643
0.0312111 0.228851 -0.297628
0.0312109 0.229851 -0.297624
0.0312057 0.248851 -0.297547
0.0302076 0.248351 -0.297561
0.0312054 0.249851 -0.297543
0.0302196 0.227853 -0.298145
0.0302261 0.227355 -0.298647
0.0312242 0.227855 -0.298632
0.0312239 0.228855 -0.298628
0.0312236 0.229855 -0.298624
0.0302209 0.246355 -0.29857
0.0302144 0.246853 -0.298068
0.031219 0.246855 -0.298555
0.0302142 0.247853 -0.298063
0.0312187 0.247855 -0.298551
0.0312184 0.248855 -0.298547
0.031237 0.227859 -0.299632
0.0302389 0.227359 -0.299647
0.0312367 0.228859 -0.299628
0.0312364 0.229859 -0.299624
0.030234 0.245359 -0.299574
0.0302275 0.245857 -0.299072
0.031232 0.245859 -0.299559
0.0312318 0.246859 -0.299555
0.0312315 0.247859 -0.299551
0.0302493 0.212861 -0.300206
0.0302558 0.212363 -0.300708
0.0312538 0.212864 -0.300694
0.0312536 0.213864 -0.30069
0.030249 0.213861 -0.300202
0.0302553 0.214363 -0.3007
0.0302454 0.226861 -0.300149
0.030252 0.226363 -0.300651
0.03125 0.226864 -0.300636
0.0312497 0.227864 -0.300632
0.0312495 0.228864 -0.300628
0.030247 0.244363 -0.300578
0.0302405 0.244861 -0.300076
0.0312451 0.244863 -0.300563
0.0312448 0.245863 -0.300559
0.0312445 0.246863 -0.300555
0.030262 0.212865 -0.301206
0.0302618 0.213865 -0.301202
0.0312628 0.226868 -0.301636
0.0302647 0.226367 -0.301651
0.0312625 0.227868 -0.301632
0.0312622 0.228868 -0.301628
0.0302601 0.243367 -0.301582
0.0302536 0.243865 -0.30108
0.0312581 0.243867 -0.301567
0.0302713 0.225869 -0.302153
0.0302778 0.225372 -0.302655
0.0312758 0.225872 -0.30264
0.0312755 0.226872 -0.302636
0.0312753 0.227872 -0.302632
0.031275 0.228872 -0.302628
0.0302734 0.241371 -0.30259
0.0302669 0.241869 -0.302088
0.0312714 0.241872 -0.302575
0.0302666 0.242869 -0.302084
0.0312886 0.225876 -0.30364