<VTKFile type="UnstructuredGrid" version="0.1" byte_order="BigEndian">
  <UnstructuredGrid>
    <Piece NumberOfPoints="15886" NumberOfCells="31772">
      <PointData>
        <DataArray type="Float64" Name="position" NumberOfComponents="3" format="ascii">
0.0473539 0.240524 -0.288705
0.047363 0.240026 -0.289207
0.0483592 0.24053 -0.289191
0.0483553 0.24153 -0.289186
0.04735 0.241524 -0.288701
0.0473552 0.242026 -0.289199
0.0483734 0.240534 -0.29019
0.0473772 0.24003 -0.290207
0.0483695 0.241534 -0.290186
0.0473694 0.24203 -0.290199
0.0483876 0.240538 -0.29119
0.0473914 0.240034 -0.291207
0.0483837 0.241538 -0.291186
0.0473746 0.242532 -0.290696
0.0483798 0.242538 -0.291182
0.0473798 0.243034 -0.291194
0.0484018 0.240542 -0.29219
0.0474056 0.240039 -0.292206
0.0483979 0.241542 -0.292186
0.0473888 0.242536 -0.291696
0.0473979 0.242038 -0.292198
0.048416 0.240546 -0.29319
0.0474198 0.240043 -0.293206
0.0484122 0.241546 -0.293186
0.0474121 0.242043 -0.293198
0.047425 0.240545 -0.293704
0.0474211 0.241545 -0.2937
0.0453473 0.239512 -0.287737
0.0453564 0.239014 -0.288239
0.0463526 0.239518 -0.288223
0.0463487 0.240518 -0.288219
0.0453434 0.240512 -0.287733
0.0463448 0.241518 -0.288215
0.0453396 0.241512 -0.287729
0.0453447 0.242014 -0.288227
0.0453654 0.238517 -0.288741
0.0453745 0.238019 -0.289243
0.0463707 0.238522 -0.289227
0.0463668 0.239522 -0.289223
0.0463551 0.242522 -0.289211
0.0453499 0.242516 -0.288725
0.045355 0.243019 -0.289223
0.0463849 0.238527 -0.290227
0.0453887 0.238023 -0.290243
0.046381 0.239526 -0.290223
0.0463693 0.242526 -0.290211
0.0453693 0.243023 -0.290223
0.0463991 0.238531 -0.291227
0.0454029 0.238027 -0.291243
0.0463952 0.239531 -0.291223
0.0453835 0.243027 -0.291223
0.0464133 0.238535 -0.292227
0.0454171 0.238031 -0.292243
0.0464094 0.239535 -0.292223
0.0463978 0.242535 -0.292211
0.0453977 0.243031 -0.292223
0.0464275 0.238539 -0.293227
0.0454313 0.238035 -0.293243
0.0464236 0.239539 -0.293223
0.046412 0.242539 -0.29321
0.0454119 0.243035 -0.293223
0.0464417 0.238543 -0.294227
0.0454455 0.238039 -0.294243
0.0464379 0.239543 -0.294222
0.046434 0.240543 -0.294218
0.0464301 0.241543 -0.294214
0.0464262 0.242543 -0.29421
0.0454261 0.243039 -0.294222
0.046456 0.238547 -0.295226
0.0454598 0.238043 -0.295243
0.0464521 0.239547 -0.295222
0.0464482 0.240547 -0.295218
0.0464443 0.241547 -0.295214
0.0464404 0.242547 -0.29521
0.0454403 0.243043 -0.295222
0.0464702 0.238551 -0.296226
0.045474 0.238047 -0.296243
0.0464663 0.239551 -0.296222
0.0464624 0.240551 -0.296218
0.0464585 0.241551 -0.296214
0.0464546 0.242551 -0.29621
0.0454546 0.243047 -0.296222
0.0454791 0.238549 -0.29674
0.0454843 0.239051 -0.297238
0.0464805 0.239555 -0.297222
0.0464766 0.240555 -0.297218
0.0464727 0.241555 -0.297214
0.0464689 0.242555 -0.29721
0.0454688 0.243051 -0.297222
0.0454895 0.239553 -0.297736
0.0454946 0.240056 -0.298234
0.0464908 0.240559 -0.298218
0.046487 0.241559 -0.298214
0.0454778 0.242553 -0.297724
0.0454869 0.242056 -0.298226
0.0454998 0.240558 -0.298732
0.0454959 0.241558 -0.298728
0.0433549 0.238505 -0.28777
0.043364 0.238007 -0.288272
0.0443602 0.238511 -0.288256
0.043351 0.239505 -0.287766
0.0433472 0.240505 -0.287762
0.0433433 0.241505 -0.287758
0.0433484 0.242007 -0.288256
0.043373 0.237509 -0.288774
0.0433821 0.237011 -0.289276
0.0443783 0.237515 -0.28926
0.0433536 0.242509 -0.288754
0.0433588 0.243011 -0.289251
0.0443925 0.237519 -0.290259
0.0433963 0.237015 -0.290276
0.043373 0.243015 -0.290251
0.0444067 0.237523 -0.291259
0.0434105 0.237019 -0.291276
0.0433872 0.243019 -0.291251
0.0434196 0.236521 -0.291778
0.0434286 0.236023 -0.292279
0.0444248 0.236527 -0.292263
0.0444209 0.237527 -0.292259
0.0434014 0.243023 -0.292251
0.044439 0.236531 -0.293263
0.0434428 0.236027 -0.293279
0.0444351 0.237531 -0.293259
0.0434156 0.243027 -0.293251
0.0444532 0.236535 -0.294263
0.043457 0.236032 -0.294279
0.0444493 0.237535 -0.294259
0.0434298 0.243031 -0.294251
0.0444675 0.236539 -0.295263
0.0434713 0.236036 -0.295279
0.0444636 0.237539 -0.295259
0.0434441 0.243036 -0.295251
0.0434764 0.236538 -0.295777
0.0434816 0.23704 -0.296275
0.0444778 0.237544 -0.296259
0.0434583 0.24304 -0.296251
0.044492 0.237548 -0.297259
0.0434958 0.237044 -0.297275
0.0444881 0.238548 -0.297255
0.0434725 0.243044 -0.297251
0.0445062 0.237552 -0.298259
0.04351 0.237048 -0.298275
0.0445023 0.238552 -0.298254
0.0444984 0.239552 -0.29825
0.0444868 0.242552 -0.298238
0.0434867 0.243048 -0.29825
0.0435152 0.23755 -0.298773
0.0435203 0.238052 -0.299271
0.0445165 0.238556 -0.299254
0.0445127 0.239556 -0.29925
0.0445088 0.240556 -0.299246
0.0445049 0.241556 -0.299242
0.044501 0.242556 -0.299238
0.0435009 0.243052 -0.29925
0.0435255 0.238554 -0.299769
0.0435307 0.239056 -0.300266
0.0445269 0.23956 -0.30025
0.044523 0.24056 -0.300246
0.0445191 0.24156 -0.300242
0.0445152 0.24256 -0.300238
0.0435151 0.243056 -0.30025
0.0435358 0.239558 -0.300764
0.0435319 0.240558 -0.30076
0.0435281 0.241558 -0.300756
0.0435242 0.242558 -0.300752
0.0413586 0.238497 -0.287798
0.0413677 0.237999 -0.2883
0.0413548 0.239497 -0.287794
0.0413509 0.240497 -0.28779
0.041347 0.241497 -0.287786
0.0413521 0.241999 -0.288284
0.0413767 0.237501 -0.288802
0.0413858 0.237003 -0.289304
0.0423626 0.242507 -0.289268
0.0413664 0.242003 -0.289284
0.0413948 0.236505 -0.289806
0.0414039 0.236007 -0.290308
0.0424001 0.236511 -0.290292
0.0413715 0.242505 -0.289782
0.0413767 0.243007 -0.29028
0.0414129 0.23551 -0.29081
0.041422 0.235012 -0.291312
0.0424182 0.235515 -0.291296
0.0424143 0.236515 -0.291292
0.0413909 0.243011 -0.29128
0.0424324 0.235519 -0.292296
0.0414362 0.235016 -0.292312
0.0424013 0.243519 -0.292263
0.0413961 0.243513 -0.291778
0.0414012 0.244016 -0.292275
0.0424466 0.235524 -0.293296
0.0414504 0.23502 -0.293312
0.0424155 0.243523 -0.293263
0.0414155 0.24402 -0.293275
0.0424608 0.235528 -0.294295
0.0414646 0.235024 -0.294312
0.0424298 0.243528 -0.294263
0.0414297 0.244024 -0.294275
0.0424751 0.235532 -0.295295
0.0414789 0.235028 -0.295312
0.042444 0.243532 -0.295263
0.0414439 0.244028 -0.295275
0.0424893 0.235536 -0.296295
0.0414931 0.235032 -0.296312
0.0424854 0.236536 -0.296291
0.0424582 0.243536 -0.296263
0.0414581 0.244032 -0.296275
0.0414982 0.235534 -0.296809
0.0415034 0.236036 -0.297307
0.0424996 0.23654 -0.297291
0.0424724 0.24354 -0.297263
0.0414723 0.244036 -0.297275
0.0425138 0.236544 -0.298291
0.0415176 0.23604 -0.298307
0.0424866 0.243544 -0.298263
0.0414865 0.24404 -0.298275
0.042528 0.236548 -0.299291
0.0415318 0.236044 -0.299307
0.0425241 0.237548 -0.299287
0.0425008 0.243548 -0.299263
0.0415007 0.244044 -0.299275
0.041537 0.236546 -0.299805
0.0415422 0.237049 -0.300303
0.0425384 0.237552 -0.300287
0.0425345 0.238552 -0.300283
0.042515 0.243552 -0.300262
0.0415059 0.244546 -0.299773
0.0425112 0.244552 -0.300258
0.0415111 0.245048 -0.300271
0.0425526 0.237556 -0.301287
0.0415564 0.237053 -0.301303
0.0425487 0.238556 -0.301283
0.0425448 0.239556 -0.301279
0.0425409 0.240556 -0.301274
0.042537 0.241556 -0.30127
0.0425331 0.242556 -0.301266
0.0425293 0.243556 -0.301262
0.0415201 0.24455 -0.300772
0.0415292 0.244053 -0.301274
0.0415615 0.237555 -0.301801
0.0415667 0.238057 -0.302299
0.0425629 0.238561 -0.302282
0.042559 0.239561 -0.302278
0.0425551 0.240561 -0.302274
0.0425512 0.24156 -0.30227
0.0425474 0.24256 -0.302266
0.0415382 0.243555 -0.301776
0.0415473 0.243057 -0.302278
0.0415719 0.238559 -0.302797
0.041568 0.239559 -0.302793
0.0415641 0.240559 -0.302788
0.0415602 0.241559 -0.302784
0.0415563 0.242559 -0.30278
0.0393624 0.238489 -0.287827
0.0393714 0.237992 -0.288329
0.0393585 0.239489 -0.287823
0.0393636 0.239992 -0.288321
0.0403598 0.240495 -0.288304
0.0403559 0.241495 -0.2883
0.0393805 0.237494 -0.288831
0.0393895 0.236996 -0.289333
0.0393688 0.240494 -0.288818
0.0393649 0.241494 -0.288814
0.0393701 0.241996 -0.289312
0.0393986 0.236498 -0.289835
0.0394076 0.236 -0.290337
0.0393752 0.242498 -0.28981
0.0393804 0.243 -0.290308
0.0404219 0.235508 -0.291324
0.0394218 0.236004 -0.291336
0.0393946 0.243004 -0.291308
0.0404361 0.235512 -0.292324
0.039436 0.236008 -0.292336
0.0393998 0.243506 -0.291806
0.039405 0.244008 -0.292304
0.0394451 0.23551 -0.292838
0.0394541 0.235012 -0.29334
0.0394192 0.244012 -0.293304
0.0394684 0.235016 -0.29434
0.0394334 0.244016 -0.294304
0.0394826 0.23502 -0.29534
0.0394476 0.24402 -0.295304
0.0394968 0.235024 -0.29634
0.040458 0.244528 -0.296287
0.0394528 0.244522 -0.295801
0.0394579 0.245024 -0.296299
0.0405072 0.235532 -0.297324
0.039511 0.235029 -0.29734
0.0404722 0.244532 -0.297287
0.0394721 0.245028 -0.297299
0.0405214 0.235537 -0.298323
0.0395252 0.235033 -0.29834
0.0404864 0.244536 -0.298287
0.0394864 0.245033 -0.298299
0.0405356 0.235541 -0.299323
0.0395394 0.235037 -0.29934
0.0405007 0.24454 -0.299287
0.0395006 0.245037 -0.299299
0.0395446 0.235539 -0.299838
0.0395498 0.236041 -0.300335
0.040546 0.236545 -0.300319
0.0395148 0.245041 -0.300299
0.0405602 0.236549 -0.301319
0.039564 0.236045 -0.301335
0.0405291 0.244549 -0.301287
0.039529 0.245045 -0.301299
0.0405744 0.236553 -0.302319
0.0395782 0.236049 -0.302335
0.0405705 0.237553 -0.302315
0.0405472 0.243553 -0.302291
0.0405433 0.244553 -0.302287
0.0395432 0.245049 -0.302299
0.0395834 0.236551 -0.302833
0.0395885 0.237053 -0.303331
0.0405847 0.237557 -0.303315
0.0405808 0.238557 -0.303311
0.0405769 0.239557 -0.303307
0.0405731 0.240557 -0.303303
0.0405692 0.241557 -0.303299
0.0405653 0.242557 -0.303295
0.0405614 0.243557 -0.30329
0.0395523 0.244551 -0.302801
0.0395613 0.244053 -0.303303
0.0395937 0.237555 -0.303829
0.0395898 0.238555 -0.303825
0.039595 0.239057 -0.304323
0.0405912 0.239561 -0.304307
0.0405873 0.240561 -0.304303
0.0395781 0.241555 -0.303813
0.0395872 0.241057 -0.304315
0.0395743 0.242555 -0.303809
0.0395704 0.243555 -0.303805
0.0396001 0.239559 -0.304821
0.0395962 0.240559 -0.304817
0.0383713 0.238488 -0.288341
0.0383674 0.239488 -0.288337
0.0373842 0.237486 -0.288859
0.0373932 0.236988 -0.289361
0.0373803 0.238486 -0.288855
0.0373764 0.239486 -0.288851
0.0373725 0.240486 -0.288847
0.0373777 0.240988 -0.289345
0.0383739 0.241492 -0.289329
0.0374023 0.23649 -0.289863
0.0374113 0.235992 -0.290365
0.0373828 0.24149 -0.289843
0.037388 0.241992 -0.290341
0.0383842 0.242496 -0.290324
0.0374204 0.235494 -0.290867
0.0374294 0.234996 -0.291369
0.0384256 0.2355 -0.291353
0.0383984 0.2425 -0.291324
0.0374022 0.241996 -0.29134
0.0384398 0.235504 -0.292353
0.0374436 0.235 -0.292369
0.0374074 0.242498 -0.291838
0.0374126 0.243 -0.292336
0.0384088 0.243504 -0.29232
0.0374579 0.235005 -0.293369
0.0374177 0.243502 -0.292834
0.0374229 0.244004 -0.293332
0.0374721 0.235009 -0.294369
0.0374371 0.244008 -0.294332
0.0374811 0.234511 -0.294871
0.0374902 0.234013 -0.295372
0.0384864 0.234517 -0.295356
0.0374513 0.244013 -0.295332
0.0385006 0.234521 -0.296356
0.0375044 0.234017 -0.296372
0.0374565 0.244515 -0.29583
0.0374616 0.245017 -0.296328
0.0385148 0.234525 -0.297356
0.0375186 0.234021 -0.297372
0.0374759 0.245021 -0.297328
0.038529 0.234529 -0.298356
0.0375328 0.234025 -0.298372
0.0374901 0.245025 -0.298328
0.0385432 0.234533 -0.299356
0.037547 0.234029 -0.299372
0.0375043 0.245029 -0.299327
0.0385574 0.234537 -0.300356
0.0375612 0.234033 -0.300372
0.0385536 0.235537 -0.300352
0.0375185 0.245033 -0.300327
0.0375664 0.234535 -0.30087
0.0375716 0.235037 -0.301368
0.0385678 0.235541 -0.301352
0.0375327 0.245037 -0.301327
0.038582 0.235545 -0.302351
0.0375858 0.235041 -0.302368
0.0375508 0.244041 -0.302331
0.0375418 0.244539 -0.301829
0.038547 0.244545 -0.302315
0.0385962 0.235549 -0.303351
0.0376 0.235046 -0.303368
0.0385923 0.236549 -0.303347
0.037565 0.244045 -0.303331
0.0376052 0.235548 -0.303865
0.0376103 0.23605 -0.304363
0.0386065 0.236554 -0.304347
0.0386027 0.237553 -0.304343
0.0385988 0.238553 -0.304339
0.0385871 0.241553 -0.304327
0.0385832 0.242553 -0.304323
0.0375831 0.24305 -0.304335
0.0375741 0.243548 -0.303833
0.0376155 0.236552 -0.304861
0.0376116 0.237552 -0.304857
0.0376168 0.238054 -0.305355
0.038613 0.238558 -0.305339
0.0376038 0.239552 -0.304849
0.0376129 0.239054 -0.305351
0.0376 0.240552 -0.304845
0.0375961 0.241552 -0.304841
0.0375922 0.242552 -0.304837
0.0376219 0.238556 -0.305853
0.0363931 0.237484 -0.289373
0.0363893 0.238484 -0.289369
0.0363854 0.239484 -0.289365
0.0363815 0.240484 -0.289361
0.035406 0.236482 -0.289891
0.035415 0.235985 -0.290393
0.0354021 0.237482 -0.289887
0.0353982 0.238482 -0.289883
0.0353943 0.239482 -0.289879
0.0363957 0.240488 -0.290361
0.0353995 0.239984 -0.290377
0.0363918 0.241488 -0.290357
0.0354241 0.235487 -0.290895
0.0354331 0.234989 -0.291397
0.0354047 0.240487 -0.290875
0.036406 0.241492 -0.291357
0.0354098 0.240989 -0.291373
0.0354422 0.234491 -0.291899
0.0354512 0.233993 -0.292401
0.0364474 0.234497 -0.292385
0.035415 0.241491 -0.291871
0.0354202 0.241993 -0.292369
0.0364164 0.242496 -0.292353
0.0364617 0.234501 -0.293385
0.0354655 0.233997 -0.293401
0.0354253 0.242495 -0.292867
0.0354214 0.243495 -0.292863
0.0354266 0.243997 -0.293361
0.0364759 0.234505 -0.294385
0.0354797 0.234001 -0.294401
0.036437 0.244505 -0.294344
0.0354318 0.244499 -0.293858
0.0354369 0.245001 -0.294356
0.0354939 0.234005 -0.295401
0.0364512 0.244509 -0.295344
0.0354511 0.245005 -0.295356
0.0355029 0.233507 -0.295903
0.035512 0.233009 -0.296405
0.0365082 0.233513 -0.296389
0.0354654 0.245009 -0.296356
0.0365224 0.233517 -0.297389
0.0355262 0.233013 -0.297405
0.0354796 0.245013 -0.297356
0.0365366 0.233521 -0.298388
0.0355404 0.233017 -0.298405
0.0354938 0.245017 -0.298356
0.0365508 0.233525 -0.299388
0.0355546 0.233022 -0.299405
0.035508 0.245021 -0.299356
0.036565 0.233529 -0.300388
0.0355688 0.233026 -0.300404
0.0355222 0.245025 -0.300356
0.0365793 0.233534 -0.301388
0.0355831 0.23303 -0.301404
0.0365754 0.234534 -0.301384
0.0355364 0.24503 -0.301356
0.0365935 0.233538 -0.302388
0.0355973 0.233034 -0.302404
0.0365896 0.234538 -0.302384
0.0365507 0.244538 -0.302343
0.0355507 0.245034 -0.302356
0.0356024 0.233536 -0.302902
0.0356076 0.234038 -0.3034
0.0366038 0.234542 -0.303384
0.036565 0.244542 -0.303343
0.0355649 0.245038 -0.303355
0.036618 0.234546 -0.304384
0.0356218 0.234042 -0.3044
0.0366141 0.235546 -0.30438
0.0365831 0.243546 -0.304347
0.035583 0.244042 -0.304359
0.0355739 0.24454 -0.303857
0.035627 0.234544 -0.304898
0.0356322 0.235046 -0.305396
0.0366284 0.23555 -0.30538
0.0366245 0.23655 -0.305375
0.0366206 0.23755 -0.305371
0.0366128 0.23955 -0.305363
0.0366089 0.24055 -0.305359
0.036605 0.24155 -0.305355
0.0366012 0.24255 -0.305351
0.0356011 0.243046 -0.305363
0.035592 0.243544 -0.304861
0.0356373 0.235548 -0.305894
0.0356334 0.236548 -0.30589
0.0356386 0.23705 -0.306388
0.0366348 0.237554 -0.306371
0.0366309 0.238554 -0.306367
0.036627 0.239554 -0.306363
0.0366231 0.240554 -0.306359
0.0366193 0.241554 -0.306355
0.0356101 0.242548 -0.305865
0.0356192 0.24205 -0.306367
0.0356438 0.237552 -0.306885
0.0356399 0.238552 -0.306881
0.035636 0.239552 -0.306877
0.0356321 0.240552 -0.306873
0.0356282 0.241552 -0.306869
0.034415 0.236481 -0.290406
0.0344111 0.237481 -0.290401
0.0344072 0.238481 -0.290397
0.0344033 0.239481 -0.290393
0.0334278 0.235479 -0.290924
0.0334369 0.234981 -0.291426
0.0334239 0.236479 -0.29092
0.03342 0.237479 -0.290916
0.0334162 0.238479 -0.290912
0.0334123 0.239479 -0.290908
0.0334174 0.239981 -0.291405
0.0344136 0.240485 -0.291389
0.0334459 0.234483 -0.291928
0.033455 0.233985 -0.29243
0.0334226 0.240483 -0.291903
0.0334187 0.241483 -0.291899
0.0334239 0.241985 -0.292397
0.0334692 0.233989 -0.29343
0.033429 0.242487 -0.292895
0.0334252 0.243487 -0.292891
0.0334303 0.243989 -0.293389
0.0334782 0.233491 -0.293932
0.0334873 0.232993 -0.294433
0.0344835 0.233497 -0.294417
0.0334355 0.244491 -0.293887
0.0334406 0.244993 -0.294385
0.0344977 0.233501 -0.295417
0.0335015 0.232997 -0.295433
0.0344511 0.245501 -0.295368
0.0334458 0.245495 -0.294883
0.033451 0.245997 -0.295381
0.0335157 0.233002 -0.296433
0.0344653 0.245505 -0.296368
0.0334652 0.246001 -0.296381
0.0335248 0.232504 -0.296935
0.0335338 0.232006 -0.297437
0.03453 0.23251 -0.297421
0.0344795 0.245509 -0.297368
0.0334794 0.246005 -0.29738
0.0345442 0.232514 -0.298421
0.033548 0.23201 -0.298437
0.0344937 0.245513 -0.298368
0.0334936 0.24601 -0.29838
0.0345584 0.232518 -0.299421
0.0335622 0.232014 -0.299437
0.0335117 0.245014 -0.299384
0.0335027 0.245512 -0.298882
0.0345727 0.232522 -0.300421
0.0335765 0.232018 -0.300437
0.0335259 0.245018 -0.300384
0.0345869 0.232526 -0.301421
0.0335907 0.232022 -0.301437
0.033544 0.244022 -0.301388
0.033535 0.24452 -0.300886
0.0345402 0.244526 -0.301372
0.0346011 0.23253 -0.30242
0.0336049 0.232026 -0.302437
0.0335621 0.243026 -0.302392
0.0335531 0.243524 -0.30189
0.0345583 0.24353 -0.302376
0.0345545 0.24453 -0.302372
0.0346153 0.232534 -0.30342
0.0336191 0.23203 -0.303437
0.0346114 0.233534 -0.303416
0.0345726 0.243534 -0.303376
0.0335764 0.24303 -0.303392
0.0345687 0.244534 -0.303372
0.0346295 0.232538 -0.30442
0.0336333 0.232034 -0.304436
0.0346256 0.233538 -0.304416
0.0335945 0.242034 -0.304396
0.0335854 0.242532 -0.303894
0.0345907 0.242538 -0.30438
0.0345868 0.243538 -0.304376
0.0336385 0.232537 -0.304934
0.0336436 0.233039 -0.305432
0.0346398 0.233542 -0.305416
0.034636 0.234542 -0.305412
0.0336126 0.241038 -0.3054
0.0336035 0.241536 -0.304898
0.0346088 0.241542 -0.305384
0.0346049 0.242542 -0.30538
0.0336488 0.233541 -0.30593
0.033654 0.234043 -0.306428
0.0346502 0.234546 -0.306412
0.0346463 0.235546 -0.306408
0.0346424 0.236546 -0.306404
0.0336307 0.240043 -0.306404
0.0336216 0.240541 -0.305902
0.0346269 0.240546 -0.306388
0.034623 0.241546 -0.306384
0.0336591 0.234545 -0.306926
0.0336553 0.235545 -0.306922
0.0336514 0.236545 -0.306918
0.0336475 0.237545 -0.306914
0.0336436 0.238545 -0.30691
0.0336397 0.239545 -0.306906
0.0338363 0.225586 -0.316961
0.0338453 0.225088 -0.317463
0.0348415 0.225592 -0.317447
0.0348376 0.226592 -0.317443
0.0338324 0.226586 -0.316957
0.0348337 0.227592 -0.317439
0.0338285 0.227586 -0.316953
0.0348299 0.228592 -0.317435
0.0338246 0.228586 -0.316949
0.0338298 0.229088 -0.317447
0.0338544 0.22459 -0.317965
0.0338634 0.224092 -0.318467
0.0348596 0.224596 -0.318451
0.0348557 0.225596 -0.318447
0.0348518 0.226596 -0.318443
0.034848 0.227596 -0.318439
0.0348441 0.228596 -0.318435
0.033844 0.229092 -0.318447
0.0338763 0.222594 -0.318973
0.0338854 0.222096 -0.319475
0.0348816 0.2226 -0.319459
0.0348777 0.2236 -0.319455
0.0338725 0.223594 -0.318969
0.0348738 0.2246 -0.319451
0.0348699 0.2256 -0.319447
0.0338608 0.226594 -0.318957
0.0338699 0.226096 -0.319459
0.0338569 0.227594 -0.318953
0.033853 0.228594 -0.318949
0.0338944 0.221598 -0.319977
0.0339035 0.2211 -0.320479
0.0348997 0.221604 -0.320463
0.0348958 0.222604 -0.320459
0.0348919 0.223604 -0.320455
0.034888 0.224604 -0.320451
0.0348842 0.225604 -0.320447
0.0338841 0.2261 -0.320459
0.0339164 0.219602 -0.320985
0.0339255 0.219105 -0.321487
0.0349217 0.219608 -0.321471
0.0349178 0.220608 -0.321467
0.0339126 0.220602 -0.320981
0.0349139 0.221608 -0.321463
0.03491 0.222608 -0.321459
0.0349061 0.223608 -0.321455
0.033897 0.224602 -0.320965
0.0339061 0.224104 -0.321467
0.0338931 0.225602 -0.320961
0.0339345 0.218607 -0.321989
0.0339436 0.218109 -0.322491
0.0349398 0.218612 -0.322475
0.0349359 0.219612 -0.322471
0.034932 0.220612 -0.322467
0.0339229 0.221607 -0.321977
0.0339319 0.221109 -0.322479
0.033919 0.222607 -0.321973
0.0339151 0.223607 -0.321969
0.0339526 0.217611 -0.322993
0.0339617 0.217113 -0.323495
0.0349579 0.217617 -0.323479
0.034954 0.218617 -0.323475
0.0349501 0.219617 -0.323471
0.033941 0.220611 -0.322981
0.03395 0.220113 -0.323483
0.0339707 0.216615 -0.323997
0.0339798 0.216117 -0.324499
0.034976 0.216621 -0.324483
0.0349721 0.217621 -0.324479
0.033963 0.218615 -0.323989
0.033972 0.218117 -0.324491
0.0339591 0.219615 -0.323985
0.033985 0.216619 -0.324997
0.0339811 0.217619 -0.324993
0.0314315 0.235471 -0.290952
0.0314406 0.234973 -0.291454
0.0314276 0.236471 -0.290948
0.0314238 0.237471 -0.290944
0.0314199 0.238471 -0.29094
0.031425 0.238973 -0.291438
0.0324212 0.239477 -0.291422
0.0314496 0.234475 -0.291956
0.0314587 0.233977 -0.292458
0.0314302 0.239475 -0.291936
0.0314263 0.240475 -0.291932
0.0314224 0.241475 -0.291928
0.0324238 0.242481 -0.292409
0.0314185 0.242475 -0.291924
0.0314237 0.242977 -0.292422
0.0314677 0.23348 -0.29296
0.0314768 0.232982 -0.293462
0.032473 0.233485 -0.293446
0.0314289 0.243479 -0.292919
0.0324302 0.244485 -0.293401
0.031425 0.244479 -0.292915
0.0314301 0.244981 -0.293413
0.031491 0.232986 -0.294462
0.0324406 0.245489 -0.294397
0.0314353 0.245483 -0.293911
0.0314405 0.245986 -0.294409
0.0315 0.232488 -0.294964
0.0315091 0.23199 -0.295466
0.0325053 0.232494 -0.29545
0.0324509 0.246493 -0.295393
0.0314456 0.246488 -0.294907
0.0314508 0.24699 -0.295405
0.031434 0.249488 -0.294895
0.031443 0.24899 -0.295397
0.0324392 0.249493 -0.295381
0.0324353 0.250493 -0.295377
0.0314301 0.250487 -0.294891
0.0324315 0.251493 -0.295373
0.0314262 0.251487 -0.294887
0.0314314 0.25199 -0.295385
0.0325195 0.232498 -0.29645
0.0315233 0.231994 -0.296466
0.0324651 0.246498 -0.296393
0.031456 0.247492 -0.295903
0.0324612 0.247498 -0.296389
0.0324573 0.248498 -0.296385
0.0314521 0.248492 -0.295899
0.0324534 0.249498 -0.296381
0.0324496 0.250497 -0.296377
0.0324457 0.251497 -0.296372
0.0314456 0.251994 -0.296385
0.0315324 0.231496 -0.296968
0.0315414 0.230998 -0.29747
0.0325376 0.231502 -0.297453
0.0324793 0.246502 -0.297393
0.0324754 0.247502 -0.297389
0.0324715 0.248502 -0.297385
0.0324677 0.249502 -0.29738
0.0324638 0.250502 -0.297376
0.0314546 0.251496 -0.296887
0.0314637 0.250998 -0.297389
0.0325518 0.231506 -0.298453
0.0315556 0.231002 -0.29847
0.0324935 0.246506 -0.298393
0.0324896 0.247506 -0.298388
0.0324858 0.248506 -0.298384
0.0324819 0.249506 -0.29838
0.0314727 0.2505 -0.297891
0.0314818 0.250002 -0.298393
0.032566 0.23151 -0.299453
0.0315698 0.231006 -0.299469
0.0325116 0.24551 -0.299396
0.0325078 0.24651 -0.299392
0.0325039 0.24751 -0.299388
0.0325 0.24851 -0.299384
0.0314908 0.249504 -0.298895
0.0314999 0.249006 -0.299396
0.0315789 0.230508 -0.299971
0.0315879 0.23001 -0.300473
0.0325841 0.230514 -0.300457
0.0325803 0.231514 -0.300453
0.0325259 0.245514 -0.300396
0.032522 0.246514 -0.300392
0.0325181 0.247514 -0.300388
0.0315089 0.248508 -0.299898
0.031518 0.24801 -0.3004
0.0325984 0.230518 -0.301457
0.0316022 0.230015 -0.301473
0.0325945 0.231518 -0.301453
0.032544 0.244518 -0.3014
0.0315439 0.245014 -0.301412
0.0315348 0.245512 -0.300911
0.0315309 0.246512 -0.300906
0.031527 0.247512 -0.300902
0.0326126 0.230522 -0.302457
0.0316164 0.230019 -0.302473
0.0326087 0.231522 -0.302453
0.0315659 0.243018 -0.30242
0.0315568 0.243516 -0.301919
0.0315529 0.244516 -0.301914
0.0326268 0.230527 -0.303457
0.0316306 0.230023 -0.303473
0.0326229 0.231527 -0.303453
0.0315878 0.241023 -0.303428
0.0315788 0.241521 -0.302927
0.032584 0.241526 -0.303412
0.0315749 0.242521 -0.302922
0.0325802 0.242526 -0.303408
0.032641 0.230531 -0.304457
0.0316448 0.230027 -0.304473
0.0326371 0.231531 -0.304453
0.0316098 0.239027 -0.304436
0.0316008 0.239525 -0.303935
0.032606 0.239531 -0.30442
0.0315969 0.240525 -0.30393
0.0326021 0.240531 -0.304416
0.0325983 0.241531 -0.304412
0.0326552 0.230535 -0.305457
0.031659 0.230031 -0.305473
0.0326513 0.231535 -0.305453
0.0326474 0.232535 -0.305449
0.0316357 0.236031 -0.305449
0.0316267 0.236529 -0.304947
0.0326319 0.236535 -0.305432
0.0316228 0.237529 -0.304943
0.032628 0.237535 -0.305428
0.0316189 0.238529 -0.304938
0.0326241 0.238535 -0.305424
0.0326202 0.239535 -0.30542
0.0326164 0.240535 -0.305416
0.0316642 0.230533 -0.305971
0.0316603 0.231533 -0.305967
0.0316655 0.232035 -0.306465
0.0326617 0.232539 -0.306448
0.0326578 0.233539 -0.306444
0.0316538 0.235035 -0.306452
0.0316448 0.235533 -0.305951
0.03265 0.235539 -0.306436
0.0326461 0.236539 -0.306432
0.0326422 0.237539 -0.306428
0.0326383 0.238539 -0.306424
0.0326345 0.239539 -0.30642
0.0316706 0.232537 -0.306963
0.0316667 0.233537 -0.306959
0.0316629 0.234537 -0.306954
0.0318038 0.22757 -0.314982
0.0318128 0.227072 -0.315484
0.032809 0.227576 -0.315468
0.0328051 0.228576 -0.315464
0.0317999 0.22857 -0.314978
0.0318051 0.229072 -0.315476
0.0318258 0.225574 -0.31599
0.0318348 0.225076 -0.316492
0.032831 0.22558 -0.316476
0.0328271 0.22658 -0.316472
0.0318219 0.226574 -0.315986
0.0328232 0.22758 -0.316468
0.0328194 0.22858 -0.316464
0.0318102 0.229574 -0.315974
0.0328155 0.22958 -0.316459
0.0328116 0.23058 -0.316455
0.0318063 0.230574 -0.31597
0.0318115 0.231076 -0.316468
0.0318439 0.224578 -0.316994
0.0318529 0.22408 -0.317496
0.0328491 0.224584 -0.31748
0.0328297 0.229584 -0.317459
0.0328258 0.230584 -0.317455
0.0318257 0.23108 -0.317467
0.031862 0.223582 -0.317998
0.031871 0.223085 -0.3185
0.0328672 0.223588 -0.318484
0.0318516 0.228084 -0.31848
0.0318425 0.228582 -0.317978
0.0328478 0.228588 -0.318463
0.0318386 0.229582 -0.317974
0.0318348 0.230582 -0.317969
0.0318801 0.222587 -0.319002
0.0318891 0.222089 -0.319504
0.0328698 0.226592 -0.319471
0.0318697 0.227089 -0.319483
0.0318606 0.227586 -0.318982
0.031902 0.220591 -0.32001
0.0319111 0.220093 -0.320512
0.0329073 0.220597 -0.320496
0.0318982 0.221591 -0.320006
0.0318917 0.225093 -0.320491
0.0318826 0.225591 -0.31999
0.0328879 0.225597 -0.320475
0.0318787 0.226591 -0.319985
0.0319202 0.219595 -0.321014
0.0319292 0.219097 -0.321516
0.0319098 0.224097 -0.321495
0.0319007 0.224595 -0.320993
0.0319421 0.217599 -0.322022
0.0319512 0.217101 -0.322524
0.0329474 0.217605 -0.322507
0.0319383 0.218599 -0.322018
0.0329318 0.221605 -0.322491
0.032928 0.222605 -0.322487
0.0319279 0.223101 -0.322499
0.0319188 0.223599 -0.321997
0.0319641 0.215603 -0.32303
0.0319732 0.215105 -0.323532
0.0329694 0.215609 -0.323515
0.0329655 0.216609 -0.323511
0.0319602 0.216603 -0.323026
0.0329499 0.220609 -0.323495
0.0329461 0.221609 -0.323491
0.0319369 0.222603 -0.323001
0.031946 0.222105 -0.323503
0.0329836 0.215613 -0.324515
0.0319874 0.215109 -0.324532
0.0329719 0.218613 -0.324503
0.032968 0.219613 -0.324499
0.031968 0.220109 -0.324511
0.0319589 0.220607 -0.324009
0.031955 0.221607 -0.324005
0.0319926 0.215611 -0.32503
0.0319887 0.216611 -0.325025
0.0319848 0.217611 -0.325021
0.0319809 0.218611 -0.325017
0.031977 0.219611 -0.325013
0.0294352 0.235464 -0.290981
0.0294443 0.234966 -0.291483
0.0294314 0.236464 -0.290977
0.0294275 0.237464 -0.290972
0.0294236 0.238464 -0.290968
0.0304249 0.239469 -0.29145
0.0294197 0.239464 -0.290964
0.0304211 0.240469 -0.291446
0.0294158 0.240464 -0.29096
0.0304172 0.241469 -0.291442
0.0294119 0.241464 -0.290956
0.0304133 0.242469 -0.291438
0.029408 0.242464 -0.290952
0.0304094 0.243469 -0.291434
0.0294042 0.243464 -0.290948
0.0294093 0.243966 -0.291446
0.0294572 0.233468 -0.291989
0.0294663 0.23297 -0.292491
0.0304625 0.233474 -0.292474
0.0294533 0.234468 -0.291985
0.0304236 0.243474 -0.292434
0.0294145 0.244468 -0.291944
0.0304197 0.244473 -0.29243
0.0304158 0.245473 -0.292426
0.0294106 0.245468 -0.29194
0.0294158 0.24597 -0.292438
0.0294805 0.232974 -0.29349
0.0304301 0.245478 -0.293426
0.0294209 0.246472 -0.292936
0.0304262 0.246478 -0.293421
0.0304223 0.247478 -0.293417
0.029417 0.247472 -0.292932
0.0304184 0.248478 -0.293413
0.0294132 0.248472 -0.292928
0.0304145 0.249478 -0.293409
0.0294093 0.249472 -0.292924
0.0304106 0.250478 -0.293405
0.0294054 0.250472 -0.29292
0.0294105 0.250974 -0.293417
0.0294895 0.232476 -0.293992
0.0294986 0.231978 -0.294494
0.0304948 0.232482 -0.294478
0.0304404 0.246482 -0.294421
0.0304365 0.247482 -0.294417
0.0304326 0.248482 -0.294413
0.0304287 0.249482 -0.294409
0.0304249 0.250482 -0.294405
0.0294157 0.251476 -0.293915
0.030421 0.251482 -0.294401
0.0294209 0.251978 -0.294413
0.0295076 0.23148 -0.294996
0.0295167 0.230982 -0.295498
0.0305129 0.231486 -0.295482
0.0304507 0.247486 -0.295417
0.0304468 0.248486 -0.295413
0.0294351 0.251982 -0.295413
0.0295257 0.230484 -0.296
0.0295348 0.229986 -0.296502
0.030531 0.23049 -0.296486
0.0305271 0.23149 -0.296482
0.0304572 0.24949 -0.296409
0.029461 0.248986 -0.296425
0.0294519 0.249484 -0.295923
0.029448 0.250484 -0.295919
0.0304533 0.25049 -0.296405
0.0294441 0.251484 -0.295915
0.0304494 0.25149 -0.296401
0.0295438 0.229488 -0.297004
0.0295529 0.22899 -0.297506
0.0305491 0.229494 -0.29749
0.0305452 0.230494 -0.297486
0.0304714 0.249494 -0.297409
0.0294752 0.24899 -0.297425
0.0304675 0.250494 -0.297405
0.0295619 0.228493 -0.298008
0.029571 0.227995 -0.29851
0.0305672 0.228498 -0.298494
0.0305633 0.229498 -0.29849
0.0305594 0.230498 -0.298486
0.0294972 0.246994 -0.298433
0.0294881 0.247492 -0.297931
0.0304934 0.247498 -0.298417
0.0294842 0.248492 -0.297927
0.0304895 0.248498 -0.298413
0.0304856 0.249498 -0.298409
0.0305814 0.228503 -0.299494
0.0295852 0.227999 -0.29951
0.0305775 0.229503 -0.29949
0.0305736 0.230502 -0.299486
0.0295153 0.245998 -0.299437
0.0295062 0.246496 -0.298935
0.0305115 0.246502 -0.299421
0.0305076 0.247502 -0.299417
0.0305037 0.248502 -0.299413
0.0296487 0.213501 -0.300069
0.0296577 0.213003 -0.300571
0.0306539 0.213507 -0.300555
0.03065 0.214507 -0.30055
0.0296448 0.214501 -0.300065
0.0296499 0.215003 -0.300563
0.0295943 0.227501 -0.300012
0.0296033 0.227003 -0.300514
0.0305995 0.227507 -0.300498
0.0305956 0.228507 -0.300494
0.0305917 0.229507 -0.30049
0.0295334 0.245003 -0.300441
0.0295243 0.2455 -0.299939
0.0305296 0.245506 -0.300425
0.0305257 0.246506 -0.300421
0.0305218 0.247506 -0.300417
0.0296629 0.213505 -0.301069
0.029659 0.214505 -0.301065
0.0306137 0.227511 -0.301498
0.0296175 0.227007 -0.301514
0.0306098 0.228511 -0.301494
0.030606 0.229511 -0.30149
0.0295515 0.244007 -0.301445
0.0295424 0.244505 -0.300943
0.0305477 0.24451 -0.301429
0.0296266 0.226509 -0.302016
0.0296356 0.226011 -0.302518
0.0306318 0.226515 -0.302502
0.0306279 0.227515 -0.302498
0.0306241 0.228515 -0.302493
0.0306202 0.229515 -0.302489
0.0295735 0.242011 -0.302453
0.0295644 0.242509 -0.301951
0.0305697 0.242515 -0.302437
0.0295605 0.243509 -0.301947
0.030646 0.226519 -0.303501
0.0296498 0.226015 -0.303518