<VTKFile type="UnstructuredGrid" version="0.1" byte_order="BigEndian">
  <UnstructuredGrid>
    <Piece NumberOfPoints="25474" NumberOfCells="50948">
      <PointData>
        <DataArray type="Float64" Name="position" NumberOfComponents="3" format="ascii">
0.0587202 0.213724 -0.201679
0.0587264 0.213205 -0.202159
0.0592224 0.213708 -0.202177
0.0587184 0.214204 -0.202199
0.0592268 0.213669 -0.203176
0.0587309 0.213165 -0.203158
0.0587228 0.214164 -0.203198
0.0587291 0.213645 -0.203678
0.0576908 0.215833 -0.198765
0.057697 0.215313 -0.199245
0.058193 0.215817 -0.199262
0.057689 0.216312 -0.199284
0.0577033 0.214794 -0.199725
0.0577095 0.214275 -0.200204
0.0582055 0.214778 -0.200222
0.0581974 0.215777 -0.200262
0.0576934 0.216273 -0.200283
0.0577158 0.213755 -0.200684
0.057722 0.213236 -0.201164
0.058218 0.21374 -0.201182
0.0582099 0.214739 -0.201221
0.0582019 0.215738 -0.201261
0.0576979 0.216233 -0.201283
0.0577283 0.212717 -0.201644
0.0577345 0.212197 -0.202124
0.0582305 0.212701 -0.202141
0.0582144 0.214699 -0.202221
0.0577041 0.215714 -0.201763
0.0577104 0.215195 -0.202242
0.0577327 0.212677 -0.202643
0.0577309 0.213157 -0.203163
0.0582188 0.21466 -0.20322
0.0577148 0.215155 -0.203242
0.0582313 0.213621 -0.204179
0.0577354 0.213117 -0.204162
0.0577273 0.214117 -0.204201
0.0577211 0.214636 -0.203721
0.0577336 0.213597 -0.204681
0.057738 0.213558 -0.20568
0.0577443 0.213038 -0.20616
0.0582402 0.213542 -0.206178
0.0577362 0.214038 -0.2062
0.0577425 0.213518 -0.20668
0.0566988 0.214825 -0.198729
0.0567051 0.214306 -0.199209
0.0572011 0.21481 -0.199227
0.0566908 0.215824 -0.198769
0.056689 0.216304 -0.199288
0.0567194 0.212787 -0.19965
0.0567257 0.212268 -0.200129
0.0572216 0.212772 -0.200147
0.0572136 0.213771 -0.200187
0.0567114 0.213786 -0.199689
0.0566934 0.216265 -0.200288
0.0572261 0.212732 -0.201146
0.0567301 0.212228 -0.201129
0.0566979 0.216225 -0.201287
0.0567364 0.211709 -0.201609
0.0567426 0.21119 -0.202088
0.0572386 0.211693 -0.202106
0.0572064 0.21569 -0.202264
0.0567024 0.216186 -0.202286
0.057243 0.211654 -0.203105
0.0567471 0.21115 -0.203088
0.057235 0.212653 -0.203145
0.0567149 0.215147 -0.203246
0.0567086 0.215666 -0.202766
0.0567453 0.21163 -0.203607
0.0567435 0.21211 -0.204126
0.0572394 0.212614 -0.204144
0.0572233 0.214612 -0.204223
0.0567193 0.215108 -0.204245
0.0572439 0.212574 -0.205143
0.0567479 0.21207 -0.205126
0.0572358 0.213573 -0.205183
0.0567318 0.214069 -0.205205
0.0567256 0.214588 -0.204725
0.0567461 0.21255 -0.205645
0.0567443 0.21303 -0.206164
0.0567363 0.214029 -0.206204
0.0572447 0.213494 -0.207181
0.0567488 0.212991 -0.207163
0.0567407 0.21399 -0.207203
0.056747 0.213471 -0.207683
0.055715 0.212819 -0.198655
0.0557213 0.212299 -0.199134
0.0562172 0.212803 -0.199152
0.0562092 0.213802 -0.199192
0.0557069 0.213818 -0.198694
0.0556989 0.214817 -0.198734
0.0556908 0.215816 -0.198773
0.055689 0.216296 -0.199293
0.0557257 0.21226 -0.200134
0.0556935 0.216256 -0.200292
0.0557302 0.21222 -0.201133
0.0556979 0.216217 -0.201291
0.0557364 0.211701 -0.201613
0.0557427 0.211182 -0.202093
0.0557024 0.216177 -0.20229
0.0557471 0.211142 -0.203092
0.0557149 0.215139 -0.20325
0.0557087 0.215658 -0.20277
0.0562475 0.211606 -0.204109
0.0557516 0.211103 -0.204091
0.0557194 0.215099 -0.204249
0.056252 0.211567 -0.205108
0.055756 0.211063 -0.20509
0.0562278 0.214564 -0.205226
0.0557238 0.21506 -0.205248
0.0557542 0.211543 -0.20561
0.0557524 0.212023 -0.206129
0.0562484 0.212526 -0.206147
0.0557363 0.214021 -0.206208
0.0557301 0.21454 -0.205728
0.0562528 0.212487 -0.207146
0.0557569 0.211983 -0.207128
0.0557408 0.213982 -0.207207
0.0557551 0.212463 -0.207647
0.055747 0.213462 -0.207687
0.054715 0.21281 -0.198659
0.0547213 0.212291 -0.199139
0.054707 0.21381 -0.198698
0.0546989 0.214809 -0.198738
0.0546909 0.215808 -0.198777
0.0546891 0.216288 -0.199297
0.0547276 0.211772 -0.199618
0.0547338 0.211252 -0.200098
0.0552298 0.211756 -0.200116
0.0546935 0.216248 -0.200296
0.0552342 0.211717 -0.201115
0.0547383 0.211213 -0.201097
0.054698 0.216209 -0.201295
0.0547445 0.210693 -0.201577
0.0547508 0.210174 -0.202057
0.0552467 0.210678 -0.202075
0.0547024 0.216169 -0.202294
0.0552512 0.210638 -0.203074
0.0547552 0.210135 -0.203056
0.0552109 0.215634 -0.203272
0.0547069 0.21613 -0.203293
0.0547534 0.210614 -0.203576
0.0547516 0.211094 -0.204095
0.0547194 0.215091 -0.204253
0.0547131 0.21561 -0.203773
0.0547561 0.211055 -0.205094
0.0547239 0.215052 -0.205252
0.0552565 0.211519 -0.206111
0.0547605 0.211015 -0.206093
0.0547364 0.214013 -0.206212
0.0547301 0.214532 -0.205732
0.0552609 0.21148 -0.20711
0.054765 0.210976 -0.207093
0.0547408 0.213973 -0.207211
0.0547632 0.211456 -0.207612
0.0547551 0.212455 -0.207652
0.0547533 0.212935 -0.208171
0.0552493 0.213438 -0.208189
0.0547453 0.213934 -0.20821
0.0547515 0.213415 -0.20869
0.0537231 0.211803 -0.198623
0.0537294 0.211284 -0.199103
0.0542253 0.211787 -0.199121
0.0537151 0.212802 -0.198663
0.053707 0.213801 -0.198702
0.053699 0.2148 -0.198742
0.0536972 0.21528 -0.199261
0.0541931 0.215784 -0.199279
0.0537356 0.210764 -0.199583
0.0537419 0.210245 -0.200063
0.0542379 0.210749 -0.200081
0.0541976 0.215745 -0.200278
0.0537016 0.215241 -0.20026
0.0542423 0.210709 -0.20108
0.0537464 0.210205 -0.201062
0.0536998 0.215721 -0.20078
0.053698 0.216201 -0.201299
0.0537508 0.210166 -0.202061
0.0537025 0.216161 -0.202298
0.0537553 0.210126 -0.20306
0.0537069 0.216122 -0.203298
0.0542557 0.210591 -0.204077
0.0537597 0.210087 -0.20406
0.0537194 0.215083 -0.204257
0.0537132 0.215602 -0.203777
0.0542601 0.210551 -0.205077
0.0537642 0.210047 -0.205059
0.0537239 0.215043 -0.205257
0.0537624 0.210527 -0.205578
0.0537606 0.211007 -0.206098
0.0542324 0.214508 -0.206234
0.0537284 0.215004 -0.206256
0.053765 0.210968 -0.207097
0.0537409 0.213965 -0.207215
0.0537346 0.214485 -0.206736
0.0537632 0.211447 -0.207616
0.0537614 0.211927 -0.208136
0.0542574 0.212431 -0.208153
0.0537453 0.213926 -0.208215
0.0537596 0.212407 -0.208655
0.0537516 0.213406 -0.208694
0.0527312 0.210796 -0.198588
0.0527375 0.210276 -0.199068
0.0532334 0.21078 -0.199085
0.0527232 0.211795 -0.198627
0.0527151 0.212794 -0.198667
0.0527071 0.213793 -0.198706
0.0527053 0.214273 -0.199226
0.0532012 0.214777 -0.199244
0.0527419 0.210237 -0.200067
0.0527035 0.214753 -0.199745
0.0527017 0.215233 -0.200265
0.0527464 0.210197 -0.201066
0.0526999 0.215712 -0.200784
0.0526981 0.216192 -0.201303
0.0527527 0.209678 -0.201546
0.0527589 0.209159 -0.202026
0.0532549 0.209662 -0.202044
0.0527025 0.216153 -0.202303
0.0532593 0.209623 -0.203043
0.0527634 0.209119 -0.203025
0.052707 0.216113 -0.203302
0.0532638 0.209583 -0.204042
0.0527678 0.20908 -0.204024
0.0527195 0.215075 -0.204261
0.0527132 0.215594 -0.203782
0.0532682 0.209544 -0.205041
0.0527723 0.20904 -0.205023
0.0527239 0.215035 -0.205261
0.0527705 0.20952 -0.205543
0.0527687 0.21 -0.206062
0.0532646 0.210503 -0.20608
0.0527284 0.214996 -0.20626
0.0532691 0.210464 -0.207079
0.0527731 0.20996 -0.207061
0.0527409 0.213957 -0.20722
0.0527347 0.214476 -0.20674
0.0527713 0.21044 -0.207581
0.0527695 0.21092 -0.2081
0.0532655 0.211424 -0.208118
0.0527454 0.213917 -0.208219
0.0532699 0.211384 -0.209117
0.052774 0.21088 -0.209099
0.0532619 0.212383 -0.209157
0.0527579 0.212879 -0.209178
0.0527516 0.213398 -0.208699
0.0527722 0.21136 -0.209619
0.0527641 0.212359 -0.209658
0.0517313 0.210787 -0.198592
0.0517375 0.210268 -0.199072
0.0517232 0.211786 -0.198632
0.0517152 0.212786 -0.198671
0.0517134 0.213265 -0.19919
0.0522093 0.213769 -0.199208
0.051742 0.210228 -0.200071
0.0517116 0.213745 -0.19971
0.0517098 0.214225 -0.200229
0.0522057 0.214729 -0.200247
0.0517464 0.210189 -0.20107
0.051708 0.214705 -0.200749
0.0516999 0.215704 -0.200788
0.0516981 0.216184 -0.201307
0.0517527 0.20967 -0.20155
0.051759 0.20915 -0.20203
0.0517026 0.216145 -0.202307
0.0517634 0.209111 -0.203029
0.051707 0.216105 -0.203306
0.0517679 0.209071 -0.204028
0.0517195 0.215066 -0.204266
0.0517133 0.215586 -0.203786
0.0517723 0.209032 -0.205028
0.051724 0.215027 -0.205265
0.0522727 0.209496 -0.206045
0.0517768 0.208992 -0.206027
0.0517284 0.214987 -0.206264
0.0522772 0.209457 -0.207044
0.0517812 0.208953 -0.207026
0.0517409 0.213949 -0.207224
0.0517347 0.214468 -0.206744
0.0517794 0.209433 -0.207545
0.0517714 0.210432 -0.207585
0.0517696 0.210912 -0.208104
0.0517454 0.213909 -0.208223
0.0517758 0.210392 -0.208584
0.0517821 0.209873 -0.209064
0.052278 0.210377 -0.209082
0.0517579 0.212871 -0.209183
0.0517517 0.21339 -0.208703
0.0517803 0.210353 -0.209583
0.0517722 0.211352 -0.209623
0.0517642 0.212351 -0.209662
0.0507313 0.210779 -0.198596
0.0507376 0.21026 -0.199076
0.0507233 0.211778 -0.198636
0.0507152 0.212777 -0.198675
0.0507134 0.213257 -0.199195
0.050742 0.21022 -0.200075
0.0507116 0.213737 -0.199714
0.0507098 0.214217 -0.200233
0.0507483 0.209701 -0.200555
0.0507545 0.209182 -0.201035
0.0512505 0.209685 -0.201053
0.050708 0.214697 -0.200753
0.0507062 0.215177 -0.201272
0.0512022 0.21568 -0.20129
0.050759 0.209142 -0.202034
0.0507044 0.215657 -0.201791
0.0507026 0.216136 -0.202311
0.0507634 0.209103 -0.203033
0.0507071 0.216097 -0.20331
0.0507679 0.209063 -0.204033
0.0507196 0.215058 -0.20427
0.0507133 0.215578 -0.20379
0.0507724 0.209024 -0.205032
0.050724 0.215019 -0.205269
0.0507768 0.208984 -0.206031
0.0507285 0.214979 -0.206268
0.0507813 0.208945 -0.20703
0.0512369 0.214444 -0.207246
0.0507329 0.21494 -0.207267
0.0507795 0.209424 -0.20755
0.0507777 0.209904 -0.208069
0.0512736 0.210408 -0.208087
0.0507454 0.213901 -0.208227
0.0507392 0.21442 -0.207747
0.0507821 0.209865 -0.209068
0.050758 0.212862 -0.209187
0.0507517 0.213382 -0.208707
0.0507803 0.210345 -0.209587
0.0507785 0.210824 -0.210107
0.0512745 0.211328 -0.210125
0.0512664 0.212327 -0.210164
0.0507624 0.212823 -0.210186
0.0512789 0.211289 -0.211124
0.050783 0.210785 -0.211106
0.0507687 0.212304 -0.210666
0.0507749 0.211784 -0.211146
0.0507812 0.211265 -0.211625
0.0497314 0.210771 -0.1986
0.0497376 0.210251 -0.19908
0.0497233 0.21177 -0.19864
0.0497153 0.212769 -0.198679
0.0497135 0.213249 -0.199199
0.0497421 0.210212 -0.200079
0.0497117 0.213729 -0.199718
0.0497099 0.214209 -0.200237
0.0497483 0.209693 -0.200559
0.0497546 0.209173 -0.201039
0.0502103 0.214673 -0.201254
0.0497143 0.214169 -0.201237
0.049759 0.209134 -0.202038
0.0497125 0.214649 -0.201756
0.0497107 0.215129 -0.202275
0.0502067 0.215633 -0.202293
0.0497635 0.209094 -0.203037
0.0497089 0.215609 -0.202795
0.0497071 0.216089 -0.203314
0.0497679 0.209055 -0.204037
0.0502156 0.215554 -0.204292
0.0497116 0.216049 -0.204313
0.0497742 0.208536 -0.204517
0.0497805 0.208016 -0.204996
0.0502764 0.20852 -0.205014
0.05022 0.215514 -0.205291
0.049716 0.21601 -0.205313
0.0497787 0.208496 -0.205516
0.0497769 0.208976 -0.206035
0.0497285 0.214971 -0.206272
0.0497223 0.21549 -0.205792
0.0497813 0.208936 -0.207034
0.049733 0.214931 -0.207271
0.0502817 0.209401 -0.208051
0.0497858 0.208897 -0.208034
0.0502414 0.214397 -0.208249
0.0497374 0.214892 -0.208271
0.049784 0.209377 -0.208553
0.0497822 0.209857 -0.209072
0.049758 0.212854 -0.209191
0.0497517 0.213373 -0.208711
0.0497437 0.214373 -0.208751
0.0502826 0.210321 -0.210089
0.0497866 0.209817 -0.210071
0.0497624 0.212815 -0.21019
0.0497848 0.210297 -0.210591
0.049783 0.210777 -0.21111
0.0502709 0.21228 -0.211167
0.0497669 0.212775 -0.211189
0.0497812 0.211257 -0.21163
0.0497732 0.212256 -0.211669
0.0487314 0.210763 -0.198604
0.0487377 0.210243 -0.199084
0.0487234 0.211762 -0.198644
0.0487153 0.212761 -0.198684
0.0487135 0.213241 -0.199203
0.0487439 0.209724 -0.199564
0.0487502 0.209205 -0.200044
0.0492461 0.209708 -0.200062
0.0492139 0.213705 -0.20022
0.048718 0.213201 -0.200202
0.0487546 0.209165 -0.201043
0.0487162 0.213681 -0.200721
0.0487143 0.214161 -0.201241
0.0487591 0.209126 -0.202042
0.0487125 0.214641 -0.20176
0.0487107 0.215121 -0.20228
0.0487653 0.208606 -0.202522
0.0487716 0.208087 -0.203002
0.0492675 0.208591 -0.20302
0.0487089 0.215601 -0.202799
0.0487071 0.21608 -0.203318
0.049272 0.208551 -0.204019
0.048776 0.208047 -0.204001
0.0487116 0.216041 -0.204317
0.0487805 0.208008 -0.205
0.0487161 0.216001 -0.205317
0.0492809 0.208472 -0.206017
0.0487849 0.207968 -0.206
0.0487286 0.214963 -0.206276
0.0487223 0.215482 -0.205797
0.0492854 0.208433 -0.207017
0.0487894 0.207929 -0.206999
0.048733 0.214923 -0.207276
0.0492898 0.208393 -0.208016
0.0487939 0.207889 -0.207998
0.0487375 0.214884 -0.208275
0.0487921 0.208369 -0.208517
0.0487903 0.208849 -0.209037
0.0492862 0.209353 -0.209055
0.049254 0.21335 -0.209213
0.04875 0.213845 -0.209234
0.0487437 0.214364 -0.208755
0.0487885 0.209329 -0.209556
0.0487867 0.209809 -0.210076
0.0487625 0.212806 -0.210194
0.0487562 0.213326 -0.209714
0.0492871 0.210273 -0.211093
0.0487911 0.209769 -0.211075
0.0487669 0.212767 -0.211193
0.0487893 0.210249 -0.211594
0.0487875 0.210729 -0.212114
0.0492835 0.211233 -0.212131
0.0492754 0.212232 -0.212171
0.0487714 0.212727 -0.212193
0.0487857 0.211209 -0.212633
0.0487777 0.212208 -0.212672
0.0477314 0.210754 -0.198609
0.0477377 0.210235 -0.199088
0.0477234 0.211754 -0.198648
0.0477153 0.212753 -0.198688
0.0477135 0.213233 -0.199207
0.047744 0.209716 -0.199568
0.0477502 0.209196 -0.200048
0.047718 0.213193 -0.200206
0.0477547 0.209157 -0.201047
0.0477162 0.213673 -0.200726
0.0477144 0.214153 -0.201245
0.0477591 0.209117 -0.202047
0.0477126 0.214633 -0.201764
0.0477108 0.215112 -0.202284
0.0477654 0.208598 -0.202526
0.0477716 0.208079 -0.203006
0.0482112 0.215577 -0.203301
0.0477152 0.215073 -0.203283
0.0477761 0.208039 -0.204005
0.0477134 0.215553 -0.203802
0.0477116 0.216033 -0.204322
0.0477823 0.20752 -0.204485
0.0477886 0.207001 -0.204965
0.0482845 0.207504 -0.204983
0.0477161 0.215993 -0.205321
0.0477868 0.20748 -0.205484
0.047785 0.20796 -0.206004
0.0482246 0.215458 -0.206298
0.0477206 0.215954 -0.20632
0.0477894 0.207921 -0.207003
0.0477331 0.214915 -0.20728
0.0477268 0.215434 -0.2068
0.0477939 0.207881 -0.208002
0.0477375 0.214876 -0.208279
0.0482943 0.208345 -0.209019
0.0477984 0.207842 -0.209001
0.048246 0.214341 -0.209256
0.047742 0.214836 -0.209278
0.0477966 0.208322 -0.209521
0.0477948 0.208801 -0.21004
0.0482907 0.209305 -0.210058
0.0477625 0.212798 -0.210198
0.0477563 0.213318 -0.209718
0.0477482 0.214317 -0.209758
0.047793 0.209281 -0.21056
0.0477912 0.209761 -0.211079
0.047767 0.212759 -0.211198
0.0477894 0.210241 -0.211598
0.0477876 0.210721 -0.212118
0.0477714 0.212719 -0.212197
0.0477858 0.211201 -0.212637
0.0477777 0.2122 -0.212677
0.0467315 0.210746 -0.198613
0.0467377 0.210227 -0.199093
0.0467297 0.211226 -0.199132
0.0472256 0.21173 -0.19915
0.0472176 0.212729 -0.199189
0.046744 0.209707 -0.199572
0.0467503 0.209188 -0.200052
0.0467279 0.211706 -0.199651
0.0467198 0.212705 -0.199691
0.046718 0.213185 -0.20021
0.0467547 0.209149 -0.201051
0.0472184 0.213649 -0.201227
0.0467225 0.213145 -0.20121
0.046761 0.208629 -0.201531
0.0467672 0.20811 -0.202011
0.0472632 0.208614 -0.202029
0.0467207 0.213625 -0.201729
0.0467189 0.214105 -0.202248
0.0472148 0.214609 -0.202266
0.0467717 0.20807 -0.20301
0.0467171 0.214585 -0.202768
0.0467153 0.215065 -0.203287
0.0467761 0.208031 -0.20401
0.0472157 0.215529 -0.204304
0.0467197 0.215025 -0.204286
0.0467824 0.207512 -0.204489
0.0467886 0.206992 -0.204969
0.0467179 0.215505 -0.204806
0.0467161 0.215985 -0.205325
0.047289 0.207457 -0.205986
0.0467931 0.206953 -0.205968
0.0467206 0.215945 -0.206324
0.0472935 0.207417 -0.206985
0.0467975 0.206913 -0.206968
0.0472291 0.215411 -0.207302
0.046725 0.215906 -0.207323
0.0472979 0.207378 -0.207985
0.046802 0.206874 -0.207967
0.0467376 0.214867 -0.208283
0.0467313 0.215387 -0.207803
0.0468002 0.207354 -0.208486
0.0467984 0.207834 -0.209006
0.046742 0.214828 -0.209282
0.0472988 0.208298 -0.210023
0.0468029 0.207794 -0.210005
0.0467626 0.21279 -0.210202
0.0467563 0.213309 -0.209723
0.0467483 0.214308 -0.209762
0.046801 0.208274 -0.210524
0.0467992 0.208754 -0.211044
0.0472952 0.209257 -0.211061
0.046767 0.21275 -0.211202
0.0472997 0.209218 -0.21206
0.0468037 0.208714 -0.212043
0.0472916 0.210217 -0.2121
0.0467715 0.212711 -0.212201
0.0468019 0.209194 -0.212562
0.0467938 0.210193 -0.212602
0.046792 0.210673 -0.213121
0.047288 0.211177 -0.213139
0.0472799 0.212176 -0.213178
0.0467759 0.212671 -0.2132
0.0467902 0.211153 -0.21364
0.0467822 0.212152 -0.21368
0.0457315 0.210738 -0.198617
0.0457378 0.210219 -0.199097
0.0457297 0.211218 -0.199136
0.045744 0.209699 -0.199577
0.0457503 0.20918 -0.200056
0.0457279 0.211698 -0.199656
0.0457199 0.212697 -0.199695
0.0457181 0.213177 -0.200214
0.0457566 0.208661 -0.200536
0.0457628 0.208141 -0.201016
0.0462588 0.208645 -0.201034
0.0457225 0.213137 -0.201214
0.0457673 0.208102 -0.202015
0.0457207 0.213617 -0.201733
0.0457189 0.214097 -0.202252
0.0457717 0.208062 -0.203014
0.0457171 0.214577 -0.202772
0.0457153 0.215057 -0.203291
0.045778 0.207543 -0.203494
0.0457842 0.207024 -0.203974
0.0462802 0.207527 -0.203992
0.0457198 0.215017 -0.20429
0.0457887 0.206984 -0.204973
0.045718 0.215497 -0.20481
0.0457162 0.215977 -0.205329
0.0457931 0.206945 -0.205973
0.0457206 0.215937 -0.206328
0.0457976 0.206905 -0.206972
0.0457251 0.215898 -0.207328
0.045802 0.206866 -0.207971
0.0457376 0.214859 -0.208287
0.0457313 0.215378 -0.207807
0.0463024 0.20733 -0.208988
0.0458065 0.206826 -0.20897
0.0457421 0.21482 -0.209286
0.0463069 0.20729 -0.209987
0.0458109 0.206787 -0.209969
0.0457626 0.212782 -0.210207
0.0457564 0.213301 -0.209727
0.0457483 0.2143 -0.209766
0.0458091 0.207266 -0.210489
0.0458073 0.207746 -0.211008
0.0463033 0.20825 -0.211026
0.0457671 0.212742 -0.211206
0.0463078 0.208211 -0.212025
0.0458118 0.207707 -0.212007
0.0457715 0.212703 -0.212205
0.04581 0.208187 -0.212527
0.0458019 0.209186 -0.212566
0.0458001 0.209666 -0.213086
0.0462961 0.210169 -0.213103
0.045776 0.212663 -0.213204
0.0457983 0.210146 -0.213605
0.0457965 0.210625 -0.214124
0.0462925 0.211129 -0.214142
0.0457885 0.211625 -0.214164
0.0457822 0.212144 -0.213684
0.0457947 0.211105 -0.214644
0.0452338 0.210714 -0.199119
0.0447521 0.208692 -0.199541
0.0447584 0.208173 -0.200021
0.0452543 0.208676 -0.200039
0.0447441 0.209691 -0.199581
0.044736 0.21069 -0.19962
0.044728 0.211689 -0.19966
0.0447262 0.212169 -0.200179
0.0452221 0.212673 -0.200197
0.0447628 0.208133 -0.20102
0.0447244 0.212649 -0.200698
0.0447226 0.213129 -0.201218
0.0447691 0.207614 -0.2015
0.0447754 0.207094 -0.20198
0.0452713 0.207598 -0.201998
0.0447208 0.213609 -0.201737
0.044719 0.214089 -0.202257
0.0452758 0.207559 -0.202997
0.0447798 0.207055 -0.202979
0.0447172 0.214568 -0.202776
0.0447154 0.215048 -0.203295
0.0447861 0.206536 -0.203459
0.0447923 0.206016 -0.203939
0.0452883 0.20652 -0.203956
0.0447198 0.215009 -0.204295
0.0452927 0.20648 -0.204956
0.0447968 0.205977 -0.204938
0.0452202 0.215473 -0.205311
0.0447243 0.214969 -0.205294
0.0452972 0.206441 -0.205955
0.0448012 0.205937 -0.205937
0.0447225 0.215449 -0.205813
0.0447207 0.215929 -0.206332
0.0453016 0.206401 -0.206954
0.0448057 0.205898 -0.206936
0.0447251 0.21589 -0.207332
0.0453061 0.206362 -0.207953
0.0448101 0.205858 -0.207936
0.0447376 0.214851 -0.208291
0.0447314 0.21537 -0.207812
0.0448083 0.206338 -0.208455
0.0448065 0.206818 -0.208974
0.0447421 0.214811 -0.209291
0.044811 0.206778 -0.209974
0.0452586 0.213277 -0.210228
0.0447546 0.213773 -0.21025
0.0447484 0.214292 -0.20977
0.0453114 0.207243 -0.21099
0.0448154 0.206739 -0.210973
0.0447671 0.212734 -0.21121
0.0447609 0.213253 -0.21073
0.0448136 0.207219 -0.211492
0.0448118 0.207699 -0.212011
0.0447716 0.212695 -0.212209
0.0453122 0.208163 -0.213028
0.0448163 0.207659 -0.213011
0.0453042 0.209162 -0.213068
0.044776 0.212655 -0.213208
0.0448145 0.208139 -0.21353
0.0448127 0.208619 -0.214049
0.0453086 0.209123 -0.214067
0.0453006 0.210122 -0.214107
0.0447885 0.211616 -0.214168
0.0447823 0.212136 -0.213688
0.0453131 0.209083 -0.215066
0.0448172 0.208579 -0.215049
0.0448028 0.210098 -0.214608
0.0448091 0.209579 -0.215088
0.0447948 0.211097 -0.214648
0.0448153 0.209059 -0.215568
0.0437522 0.208684 -0.199545
0.0437584 0.208164 -0.200025
0.0437441 0.209683 -0.199585
0.0437361 0.210682 -0.199624
0.0437343 0.211162 -0.200144
0.0442302 0.211666 -0.200161
0.0437629 0.208125 -0.201024
0.0437325 0.211642 -0.200663
0.0437244 0.212641 -0.200703
0.0437226 0.213121 -0.201222
0.0437691 0.207605 -0.201504
0.0437754 0.207086 -0.201984
0.044223 0.213585 -0.202239
0.0437271 0.213081 -0.202221
0.0437817 0.206567 -0.202464
0.0437879 0.206047 -0.202944
0.0442839 0.206551 -0.202961
0.0437253 0.213561 -0.202741
0.0437235 0.214041 -0.20326
0.0442194 0.214545 -0.203278
0.0437924 0.206008 -0.203943
0.0442239 0.214505 -0.204277
0.0437279 0.214001 -0.204259
0.0437968 0.205968 -0.204942
0.0437261 0.214481 -0.204778
0.0437243 0.214961 -0.205298
0.0438013 0.205929 -0.205941
0.0437225 0.215441 -0.205817
0.0437207 0.215921 -0.206337
0.0438057 0.205889 -0.206941
0.0437252 0.215881 -0.207336
0.0438102 0.20585 -0.20794
0.0437377 0.214843 -0.208295
0.0437314 0.215362 -0.207816
0.0443106 0.206314 -0.208957
0.0438146 0.20581 -0.208939
0.0437421 0.214803 -0.209295
0.044315 0.206275 -0.209956
0.0438191 0.205771 -0.209938
0.0437546 0.213764 -0.210254
0.0437484 0.214284 -0.209775
0.0438173 0.206251 -0.210458
0.0438155 0.206731 -0.210977
0.0442631 0.21323 -0.211232
0.0437591 0.213725 -0.211254
0.0443159 0.207195 -0.211994
0.0438199 0.206691 -0.211976
0.0437716 0.212686 -0.212213
0.0437654 0.213206 -0.211733
0.0443203 0.207155 -0.212993
0.0438244 0.206652 -0.212975
0.0437761 0.212647 -0.213212
0.0438226 0.207132 -0.213495
0.0438208 0.207611 -0.214014
0.0443167 0.208115 -0.214032
0.0437886 0.211608 -0.214172
0.0437823 0.212127 -0.213692
0.0443212 0.208076 -0.215031
0.0438252 0.207572 -0.215013
0.0443051 0.210074 -0.21511
0.044297 0.211073 -0.21515
0.043793 0.211569 -0.215171
0.0438234 0.208052 -0.215533
0.0438154 0.209051 -0.215572
0.0438073 0.21005 -0.215612
0.0437993 0.211049 -0.215651
0.0427603 0.207676 -0.19951
0.0427665 0.207157 -0.19999
0.0432625 0.207661 -0.200007
0.0427522 0.208675 -0.199549
0.0427442 0.209675 -0.199589
0.0427361 0.210674 -0.199628
0.0427343 0.211154 -0.200148
0.0432669 0.207621 -0.201007
0.042771 0.207117 -0.200989
0.0432347 0.211618 -0.201165
0.0427388 0.211114 -0.201147
0.0432267 0.212617 -0.201204
0.0427772 0.206598 -0.201469
0.0427835 0.206079 -0.201949
0.0432794 0.206582 -0.201966
0.042737 0.211594 -0.201666
0.0427289 0.212593 -0.201706
0.0427271 0.213073 -0.202225
0.042788 0.206039 -0.202948
0.0427253 0.213553 -0.202745
0.0427235 0.214033 -0.203264
0.0427942 0.20552 -0.203428
0.0428005 0.205001 -0.203908
0.0432964 0.205504 -0.203925
0.042728 0.213993 -0.204263
0.0433009 0.205465 -0.204924
0.0428049 0.204961 -0.204907
0.0427262 0.214473 -0.204783
0.0427244 0.214953 -0.205302
0.0433053 0.205425 -0.205924
0.0428094 0.204922 -0.205906
0.0427226 0.215433 -0.205821
0.0427208 0.215913 -0.206341
0.0433098 0.205386 -0.206923
0.0428138 0.204882 -0.206905
0.0432212 0.216377 -0.207358
0.042719 0.216392 -0.20686
0.0427172 0.216872 -0.207379
0.0433142 0.205346 -0.207922
0.0428183 0.204843 -0.207904
0.0432337 0.215338 -0.208317
0.0427297 0.215834 -0.208339
0.0427234 0.216353 -0.207859
0.0428165 0.205322 -0.208424
0.0428147 0.205802 -0.208943
0.0427422 0.214795 -0.209299
0.0427359 0.215314 -0.208819
0.0428191 0.205763 -0.209942
0.0427547 0.213756 -0.210258
0.0427484 0.214276 -0.209779
0.0433195 0.206227 -0.210959
0.0428236 0.205723 -0.210941
0.0427672 0.212718 -0.211218
0.0427609 0.213237 -0.210738
0.0432632 0.213221 -0.211236
0.043324 0.206187 -0.211958
0.042828 0.205684 -0.211941
0.0427717 0.212678 -0.212217
0.0428262 0.206164 -0.21246
0.0428244 0.206643 -0.212979
0.0427761 0.212639 -0.213217
0.0433248 0.207108 -0.213996
0.0428289 0.206604 -0.213979
0.0427886 0.2116 -0.214176
0.0427824 0.212119 -0.213696
0.0433293 0.207068 -0.214996
0.0428333 0.206564 -0.214978
0.0427931 0.21156 -0.215175
0.0428315 0.207044 -0.215497
0.0428297 0.207524 -0.216017
0.0433257 0.208028 -0.216034
0.0433176 0.209027 -0.216074
0.0428136 0.209523 -0.216096
0.0428074 0.210042 -0.215616
0.0427993 0.211041 -0.215655
0.0428279 0.208004 -0.216536
0.0428199 0.209003 -0.216575
0.0417603 0.207668 -0.199514
0.0417666 0.207149 -0.199994
0.0417523 0.208667 -0.199554
0.0417442 0.209666 -0.199593
0.0417424 0.210146 -0.200112
0.0422384 0.21065 -0.20013
0.041771 0.207109 -0.200993
0.0417406 0.210626 -0.200632
0.0417388 0.211106 -0.201151
0.0417773 0.20659 -0.201473
0.0417835 0.20607 -0.201953
0.0422392 0.21157 -0.202168
0.0417433 0.211066 -0.20215
0.0422312 0.212569 -0.202208
0.041788 0.206031 -0.202952
0.0417415 0.211546 -0.20267
0.0417334 0.212545 -0.202709
0.0417254 0.213545 -0.202749
0.0417236 0.214024 -0.203268
0.0417942 0.205512 -0.203432
0.0418005 0.204992 -0.203912
0.041728 0.213985 -0.204267
0.041805 0.204953 -0.204911
0.0417262 0.214465 -0.204787
0.0417244 0.214945 -0.205306
0.0418094 0.204913 -0.20591
0.0417226 0.215425 -0.205825
0.0422168 0.216408 -0.206363
0.0417146 0.216424 -0.205865
0.0417128 0.216904 -0.206384
0.0418139 0.204874 -0.206909
0.0417172 0.216864 -0.207384
0.0418183 0.204834 -0.207908
0.0422257 0.216329 -0.208361
0.0417217 0.216825 -0.208383
0.0423187 0.205299 -0.208925
0.0418228 0.204795 -0.208908
0.0417422 0.214787 -0.209303
0.041736 0.215306 -0.208823
0.0417279 0.216305 -0.208863
0.0423232 0.205259 -0.209925
0.0418272 0.204755 -0.209907
0.0417547 0.213748 -0.210263
0.0417485 0.214267 -0.209783
0.0423276 0.20522 -0.210924
0.0418317 0.204716 -0.210906
0.0417672 0.212709 -0.211222
0.041761 0.213229 -0.210742
0.0423321 0.20518 -0.211923
0.0418361 0.204676 -0.211905
0.0417798 0.211671 -0.212182
0.0417735 0.21219 -0.211702
0.0422757 0.212174 -0.2122
0.0418343 0.205156 -0.212425
0.0418325 0.205636 -0.212944
0.0423285 0.20614 -0.212962
0.0422802 0.212135 -0.213199
0.0417842 0.211631 -0.213181
0.0423329 0.2061 -0.213961
0.041837 0.205597 -0.213943
0.0417887 0.211592 -0.21418
0.0423374 0.206061 -0.21496
0.0418414 0.205557 -0.214942
0.0418012 0.210553 -0.21514
0.0417949 0.211072 -0.21466
0.0422971 0.211057 -0.215158
0.0418396 0.206037 -0.215462
0.0418378 0.206517 -0.215981
0.0423338 0.20702 -0.215999
0.0423096 0.210018 -0.216117
0.0418056 0.210514 -0.216139
0.041836 0.206997 -0.216501
0.041828 0.207996 -0.21654
0.0418199 0.208995 -0.21658
0.0418119 0.209994 -0.216619
0.0407604 0.20766 -0.199518
0.0407666 0.20714 -0.199998
0.0407523 0.208659 -0.199558
0.0407505 0.209139 -0.200077
0.0412465 0.209642 -0.200095
0.0407729 0.206621 -0.200478
0.0407791 0.206102 -0.200958
0.0412751 0.206605 -0.200975
0.0407487 0.209619 -0.200596
0.0407407 0.210618 -0.200636
0.0407389 0.211098 -0.201155
0.0407854 0.205582 -0.201438
0.0407916 0.205063 -0.201917
0.0412876 0.205567 -0.201935
0.0407433 0.211058 -0.202155
0.041292 0.205527 -0.202934
0.0407961 0.205024 -0.202917
0.0407415 0.211538 -0.202674
0.0407335 0.212537 -0.202713
0.0407254 0.213536 -0.202753
0.0407236 0.214016 -0.203272
0.0408005 0.204984 -0.203916
0.0407281 0.213977 -0.204272
0.040805 0.204945 -0.204915
0.0407263 0.214457 -0.204791
0.0412204 0.21544 -0.205328
0.0407182 0.215456 -0.20483
0.0407164 0.215936 -0.20535
0.0408113 0.204425 -0.205395
0.0408175 0.203906 -0.205875
0.0413135 0.20441 -0.205892
0.0407146 0.216415 -0.205869
0.0407128 0.216895 -0.206389
0.0408157 0.204386 -0.206394
0.0408139 0.204866 -0.206913
0.0407172 0.216856 -0.207388
0.0408202 0.204346 -0.207393
0.0408264 0.203827 -0.207873
0.0413224 0.204331 -0.207891
0.0407217 0.216816 -0.208387
0.0408246 0.204307 -0.208392
0.0408228 0.204787 -0.208912
0.0407423 0.214778 -0.209307
0.040736 0.215298 -0.208827
0.040728 0.216297 -0.208867
0.0408273 0.204747 -0.209911
0.0412507 0.214244 -0.210284
0.0407467 0.214739 -0.210306
0.0408317 0.204708 -0.21091
0.0407673 0.212701 -0.211226
0.040761 0.21322 -0.210747
0.040753 0.21422 -0.210786
0.0408362 0.204668 -0.211909
0.0407798 0.211662 -0.212186
0.0407735 0.212182 -0.211706
0.0413366 0.205132 -0.212926
0.0408406 0.204629 -0.212909
0.0407842 0.211623 -0.213185
0.041341 0.205093 -0.213926
0.0408451 0.204589 -0.213908
0.0407968 0.210584 -0.214145
0.0407905 0.211104 -0.213665
0.0412927 0.211088 -0.214163
0.0408433 0.205069 -0.214427
0.0408415 0.205549 -0.214947
0.0408012 0.210545 -0.215144
0.0413419 0.206013 -0.215964
0.0408459 0.205509 -0.215946
0.0408137 0.209506 -0.216104
0.0408075 0.210025 -0.215624
0.0413097 0.21001 -0.216122
0.0408522 0.20499 -0.216426
0.0408584 0.204471 -0.216905
0.0413544 0.204974 -0.216923
0.0413463 0.205974 -0.216963
0.0413383 0.206973 -0.217002
0.0408343 0.207468 -0.217024
0.040828 0.207988 -0.216544
0.04082 0.208987 -0.216584
0.0408566 0.204951 -0.217425
0.0408486 0.20595 -0.217464
0.0408405 0.206949 -0.217504
0.0402626 0.207636 -0.20002
0.0402546 0.208635 -0.200059
0.0397729 0.206613 -0.200482
0.0397792 0.206094 -0.200962
0.0397649 0.207612 -0.200521
0.040259 0.208596 -0.201059
0.0397631 0.208092 -0.201041
0.040251 0.209595 -0.201098
0.0402429 0.210594 -0.201138
0.0397854 0.205574 -0.201442
0.0397917 0.205055 -0.201921
0.0397613 0.208572 -0.20156
0.0397532 0.209571 -0.2016
0.0397452 0.21057 -0.201639
0.0397433 0.21105 -0.202159
0.0397961 0.205015 -0.202921
0.0397415 0.21153 -0.202678
0.0397335 0.212529 -0.202718
0.0397254 0.213528 -0.202757
0.0397236 0.214008 -0.203276
0.0398024 0.204496 -0.203401
0.0398086 0.203977 -0.20388
0.0403046 0.20448 -0.203898
0.040224 0.214472 -0.204293
0.0397218 0.214488 -0.203796
0.03972 0.214968 -0.204315
0.040309 0.204441 -0.204897
0.0398131 0.203937 -0.20488
0.0397182 0.215448 -0.204835
0.0402124 0.216431 -0.205372
0.0397102 0.216447 -0.204874
0.0397084 0.216927 -0.205393
0.0398176 0.203898 -0.205879
0.0397128 0.216887 -0.206393
0.040318 0.204362 -0.206896
0.039822 0.203858 -0.206878
0.0397173 0.216848 -0.207392
0.0398265 0.203819 -0.207877
0.0397217 0.216808 -0.208391
0.0403269 0.204283 -0.208894
0.0398309 0.203779 -0.208876
0.0397423 0.21477 -0.209311
0.0397361 0.21529 -0.208831
0.039728 0.216289 -0.208871
0.0403313 0.204243 -0.209893
0.0398354 0.20374 -0.209876
0.0397468 0.214731 -0.21031
0.0403358 0.204204 -0.210893
0.0398398 0.2037 -0.210875