<VTKFile type="UnstructuredGrid" version="0.1" byte_order="BigEndian">
  <UnstructuredGrid>
    <Piece NumberOfPoints="25474" NumberOfCells="50948">
      <PointData>
        <DataArray type="Float64" Name="position" NumberOfComponents="3" format="ascii">
0.0571115 0.215222 -0.200798
0.0571358 0.2147 -0.201275
0.0576225 0.215213 -0.201286
0.0571097 0.215699 -0.201319
0.057645 0.215169 -0.202285
0.0571583 0.214657 -0.202274
0.0571323 0.215655 -0.202318
0.0571566 0.215134 -0.202795
0.0559924 0.217324 -0.197912
0.0560167 0.216802 -0.198389
0.0565033 0.217315 -0.1984
0.0559906 0.217801 -0.198433
0.056041 0.216281 -0.198866
0.0560653 0.21576 -0.199343
0.0565519 0.216273 -0.199355
0.0565259 0.217271 -0.199399
0.0560131 0.217757 -0.199432
0.0560896 0.215239 -0.19982
0.0561139 0.214717 -0.200297
0.0566005 0.21523 -0.200309
0.0565745 0.216229 -0.200353
0.0565484 0.217228 -0.200398
0.0560357 0.217713 -0.200431
0.0561382 0.214196 -0.200775
0.0561625 0.213675 -0.201252
0.0566491 0.214188 -0.201263
0.056597 0.216185 -0.201352
0.05606 0.217192 -0.200908
0.0560843 0.216671 -0.201385
0.0561607 0.214152 -0.201773
0.0561589 0.21463 -0.202295
0.0566195 0.216141 -0.202351
0.0561068 0.216627 -0.202384
0.0566681 0.215099 -0.203305
0.0561815 0.214586 -0.203294
0.0561554 0.215584 -0.203338
0.0561311 0.216106 -0.202861
0.0561797 0.215063 -0.203815
0.0562022 0.215019 -0.204814
0.0562265 0.214498 -0.205291
0.0567132 0.215011 -0.205303
0.0562005 0.215497 -0.205336
0.0562248 0.214975 -0.205813
0.055019 0.216298 -0.197889
0.0550433 0.215777 -0.198366
0.05553 0.21629 -0.198377
0.0549929 0.217297 -0.197933
0.0549912 0.217774 -0.198455
0.0550937 0.214257 -0.198798
0.055118 0.213735 -0.199276
0.0556046 0.214248 -0.199287
0.0555786 0.215247 -0.199332
0.0550676 0.215255 -0.198843
0.0550137 0.21773 -0.199453
0.0556272 0.214204 -0.200286
0.0551405 0.213692 -0.200274
0.0550363 0.217686 -0.200452
0.0551648 0.21317 -0.200752
0.0551891 0.212649 -0.201229
0.0556758 0.213162 -0.20124
0.0555715 0.217157 -0.201418
0.0550588 0.217642 -0.201451
0.0556983 0.213118 -0.202239
0.0552116 0.212605 -0.202227
0.0556723 0.214117 -0.202283
0.0551074 0.2166 -0.202405
0.0550831 0.217121 -0.201928
0.0552099 0.213083 -0.202749
0.0552081 0.21356 -0.203271
0.0556948 0.214073 -0.203282
0.0556427 0.21607 -0.203371
0.0551299 0.216556 -0.203404
0.0557173 0.214029 -0.204281
0.0552307 0.213516 -0.204269
0.0556913 0.215028 -0.204325
0.0551785 0.215513 -0.204358
0.0551542 0.216035 -0.203881
0.0552289 0.213993 -0.204791
0.0552271 0.214471 -0.205313
0.0552011 0.21547 -0.205357
0.0557363 0.21494 -0.206323
0.0552497 0.214427 -0.206312
0.0552236 0.215426 -0.206356
0.0552479 0.214904 -0.206833
0.0540717 0.214274 -0.197821
0.054096 0.213752 -0.198298
0.0545827 0.214265 -0.19831
0.0545566 0.215264 -0.198354
0.0540457 0.215272 -0.197865
0.0540196 0.216271 -0.19791
0.0539935 0.21727 -0.197954
0.0539918 0.217747 -0.198476
0.0541186 0.213708 -0.199297
0.0540143 0.217703 -0.199475
0.0541411 0.213665 -0.200296
0.0540368 0.217659 -0.200474
0.0541654 0.213143 -0.200773
0.0541897 0.212622 -0.20125
0.0540594 0.217615 -0.201472
0.0542122 0.212578 -0.202249
0.054108 0.216573 -0.202427
0.0540837 0.217094 -0.201949
0.0547214 0.213047 -0.203259
0.0542348 0.212534 -0.203248
0.0541305 0.216529 -0.203425
0.054744 0.213003 -0.204258
0.0542573 0.21249 -0.204246
0.0546658 0.215999 -0.204391
0.0541531 0.216485 -0.204424
0.0542555 0.212968 -0.204768
0.0542538 0.213445 -0.20529
0.0547405 0.213958 -0.205301
0.0542017 0.215443 -0.205379
0.0541774 0.215964 -0.204901
0.054763 0.213914 -0.2063
0.0542763 0.213401 -0.206288
0.0542242 0.215399 -0.206377
0.0542746 0.213879 -0.20681
0.0542485 0.214877 -0.206854
0.0530723 0.214247 -0.197842
0.0530966 0.213725 -0.19832
0.0530463 0.215245 -0.197887
0.0530202 0.216244 -0.197931
0.0529941 0.217243 -0.197976
0.0529924 0.21772 -0.198497
0.0531209 0.213204 -0.198797
0.0531452 0.212683 -0.199274
0.0536319 0.213196 -0.199285
0.0530149 0.217676 -0.199496
0.0536544 0.213152 -0.200284
0.0531678 0.212639 -0.200273
0.0530374 0.217632 -0.200495
0.0531921 0.212118 -0.20075
0.0532164 0.211596 -0.201227
0.053703 0.212109 -0.201238
0.05306 0.217588 -0.201494
0.0537256 0.212065 -0.202237
0.0532389 0.211552 -0.202226
0.0535952 0.217059 -0.20246
0.0530825 0.217544 -0.202492
0.0532371 0.21203 -0.202747
0.0532354 0.212507 -0.203269
0.0531311 0.216502 -0.203447
0.0531068 0.217023 -0.20297
0.0532579 0.212463 -0.204268
0.0531537 0.216458 -0.204446
0.0537671 0.212932 -0.205278
0.0532804 0.212419 -0.205267
0.0532023 0.215415 -0.2054
0.053178 0.215937 -0.204923
0.0537897 0.212888 -0.206277
0.053303 0.212376 -0.206265
0.0532248 0.215372 -0.206399
0.0533012 0.212853 -0.206787
0.0532752 0.213852 -0.206831
0.0532734 0.214329 -0.207353
0.0537601 0.214842 -0.207365
0.0532473 0.215328 -0.207397
0.0532716 0.214806 -0.207875
0.052099 0.213221 -0.197819
0.0521233 0.2127 -0.198296
0.05261 0.213212 -0.198308
0.0520729 0.21422 -0.197864
0.0520469 0.215218 -0.197908
0.0520208 0.216217 -0.197953
0.052019 0.216694 -0.198474
0.0525057 0.217207 -0.198486
0.0521476 0.212178 -0.198774
0.0521719 0.211657 -0.199251
0.0526586 0.21217 -0.199262
0.0525282 0.217163 -0.199485
0.0520416 0.21665 -0.199473
0.0526811 0.212126 -0.200261
0.0521944 0.211613 -0.20025
0.0520398 0.217128 -0.199995
0.052038 0.217605 -0.200516
0.052217 0.211569 -0.201248
0.0520606 0.217561 -0.201515
0.0522395 0.211525 -0.202247
0.0520831 0.217517 -0.202514
0.0527487 0.211994 -0.203257
0.052262 0.211482 -0.203246
0.0521317 0.216475 -0.203468
0.0521074 0.216996 -0.202991
0.0527712 0.211951 -0.204256
0.0522846 0.211438 -0.204245
0.0521542 0.216431 -0.204467
0.0522828 0.211915 -0.204766
0.052281 0.212392 -0.205288
0.0526895 0.215901 -0.205433
0.0521768 0.216387 -0.205466
0.0523036 0.212349 -0.206287
0.0522254 0.215345 -0.20642
0.0522011 0.215866 -0.205943
0.0523018 0.212826 -0.206808
0.0523 0.213303 -0.20733
0.0527867 0.213816 -0.207341
0.0522479 0.215301 -0.207419
0.0522983 0.213781 -0.207852
0.0522722 0.214779 -0.207896
0.0511256 0.212195 -0.197796
0.0511499 0.211674 -0.198273
0.0516366 0.212187 -0.198285
0.0510996 0.213194 -0.197841
0.0510735 0.214192 -0.197885
0.0510474 0.215191 -0.19793
0.0510457 0.215669 -0.198451
0.0515324 0.216181 -0.198463
0.0511725 0.21163 -0.199272
0.0510439 0.216146 -0.198973
0.0510422 0.216623 -0.199494
0.051195 0.211586 -0.200271
0.0510404 0.217101 -0.200016
0.0510386 0.217578 -0.200538
0.0512193 0.211065 -0.200748
0.0512436 0.210544 -0.201225
0.0517303 0.211056 -0.201237
0.0510612 0.217534 -0.201536
0.0517528 0.211013 -0.202236
0.0512661 0.2105 -0.202224
0.0510837 0.21749 -0.202535
0.0517754 0.210969 -0.203234
0.0512887 0.210456 -0.203223
0.0511323 0.216448 -0.20349
0.051108 0.216969 -0.203012
0.0517979 0.210925 -0.204233
0.0513112 0.210412 -0.204222
0.0511548 0.216404 -0.204488
0.0513095 0.210889 -0.204743
0.0513077 0.211367 -0.205265
0.0517944 0.21188 -0.205276
0.0511774 0.21636 -0.205487
0.0518169 0.211836 -0.206275
0.0513302 0.211323 -0.206264
0.051226 0.215318 -0.206441
0.0512017 0.215839 -0.205964
0.0513285 0.2118 -0.206785
0.0513267 0.212278 -0.207307
0.0518134 0.212791 -0.207318
0.0512485 0.215274 -0.20744
0.0518359 0.212747 -0.208317
0.0513492 0.212234 -0.208306
0.0518098 0.213745 -0.208362
0.0512971 0.214231 -0.208395
0.0512728 0.214752 -0.207917
0.0513475 0.212711 -0.208827
0.0513214 0.21371 -0.208872
0.0501262 0.212168 -0.197818
0.0501505 0.211647 -0.198295
0.0501002 0.213167 -0.197862
0.0500741 0.214165 -0.197906
0.0500723 0.214643 -0.198428
0.050559 0.215156 -0.19844
0.0501731 0.211603 -0.199293
0.0500706 0.21512 -0.19895
0.0500688 0.215598 -0.199471
0.0505555 0.216111 -0.199483
0.0501956 0.211559 -0.200292
0.0500671 0.216075 -0.199993
0.050041 0.217074 -0.200037
0.0500392 0.217551 -0.200559
0.0502199 0.211038 -0.200769
0.0502442 0.210517 -0.201247
0.0500618 0.217507 -0.201558
0.0502667 0.210473 -0.202245
0.0500843 0.217463 -0.202557
0.0502893 0.210429 -0.203244
0.0501329 0.216421 -0.203511
0.0501086 0.216942 -0.203034
0.0503118 0.210385 -0.204243
0.0501554 0.216377 -0.20451
0.050821 0.210854 -0.205253
0.0503344 0.210341 -0.205242
0.050178 0.216333 -0.205508
0.0508436 0.21081 -0.206252
0.0503569 0.210297 -0.20624
0.0502266 0.215291 -0.206463
0.0502023 0.215812 -0.205986
0.0503551 0.210775 -0.206762
0.0503291 0.211773 -0.206807
0.0503273 0.212251 -0.207328
0.0502491 0.215247 -0.207462
0.0503516 0.211729 -0.207805
0.0503759 0.211208 -0.208283
0.0508626 0.211721 -0.208294
0.0502977 0.214204 -0.208416
0.0502734 0.214725 -0.207939
0.0503741 0.211685 -0.208804
0.0503481 0.212684 -0.208849
0.050322 0.213683 -0.208893
0.0491268 0.212141 -0.197839
0.0491511 0.21162 -0.198316
0.0491008 0.21314 -0.197883
0.0490747 0.214138 -0.197928
0.0490729 0.214616 -0.198449
0.0491737 0.211576 -0.199315
0.0490712 0.215093 -0.198971
0.0490694 0.215571 -0.199493
0.049198 0.211055 -0.199792
0.0492223 0.210533 -0.200269
0.0497089 0.211046 -0.200281
0.0490676 0.216048 -0.200014
0.0490659 0.216525 -0.200536
0.0495526 0.217038 -0.200547
0.0492448 0.21049 -0.201268
0.0490641 0.217003 -0.201058
0.0490624 0.21748 -0.201579
0.0492673 0.210446 -0.202267
0.0490849 0.217436 -0.202578
0.0492899 0.210402 -0.203266
0.0491335 0.216394 -0.203532
0.0491092 0.216915 -0.203055
0.0493124 0.210358 -0.204264
0.049156 0.21635 -0.204531
0.0493349 0.210314 -0.205263
0.0491786 0.216306 -0.20553
0.0493575 0.21027 -0.206262
0.0497138 0.215776 -0.206496
0.0492011 0.216262 -0.206529
0.0493557 0.210748 -0.206783
0.049354 0.211225 -0.207305
0.0498406 0.211738 -0.207317
0.0492497 0.21522 -0.207483
0.0492254 0.215741 -0.207006
0.0493765 0.211181 -0.208304
0.0492983 0.214177 -0.208437
0.049274 0.214698 -0.20796
0.0493747 0.211658 -0.208825
0.049373 0.212136 -0.209347
0.0498596 0.212649 -0.209359
0.0498336 0.213647 -0.209403
0.0493208 0.214133 -0.209436
0.0498822 0.212605 -0.210357
0.0493955 0.212092 -0.210346
0.0493451 0.213612 -0.209913
0.0493694 0.213091 -0.21039
0.0493937 0.212569 -0.210868
0.0481274 0.212114 -0.19786
0.0481517 0.211593 -0.198337
0.0481014 0.213113 -0.197905
0.0480753 0.214111 -0.197949
0.0480735 0.214589 -0.198471
0.0481743 0.211549 -0.199336
0.0480718 0.215066 -0.198992
0.04807 0.215544 -0.199514
0.0481986 0.211028 -0.199813
0.0482229 0.210506 -0.200291
0.0485792 0.216013 -0.200524
0.0480925 0.2155 -0.200513
0.0482454 0.210462 -0.201289
0.0480908 0.215977 -0.201034
0.048089 0.216454 -0.201556
0.0485757 0.216967 -0.201568
0.0482679 0.210419 -0.202288
0.0480872 0.216932 -0.202078
0.0480855 0.217409 -0.202599
0.0482905 0.210375 -0.203287
0.0486208 0.21688 -0.203565
0.048108 0.217365 -0.203598
0.0483148 0.209853 -0.203764
0.0483391 0.209332 -0.204241
0.0488257 0.209845 -0.204253
0.0486433 0.216836 -0.204564
0.0481306 0.217322 -0.204597
0.0483373 0.20981 -0.204763
0.0483355 0.210287 -0.205284
0.0481792 0.216279 -0.205551
0.0481549 0.2168 -0.205074
0.0483581 0.210243 -0.206283
0.0482017 0.216235 -0.20655
0.0488673 0.210712 -0.207294
0.0483806 0.210199 -0.207282
0.048737 0.215705 -0.207516
0.0482242 0.216191 -0.207549
0.0483788 0.210677 -0.207804
0.0483771 0.211154 -0.208325
0.0482989 0.21415 -0.208459
0.0482746 0.214671 -0.207981
0.0482485 0.21567 -0.208026
0.0488863 0.211623 -0.209336
0.0483996 0.21111 -0.209324
0.0483214 0.214106 -0.209457
0.0483979 0.211588 -0.209846
0.0483961 0.212065 -0.210367
0.0488567 0.213576 -0.210423
0.048344 0.214062 -0.210456
0.0483943 0.212542 -0.210889
0.0483683 0.213541 -0.210933
0.047128 0.212087 -0.197882
0.0471523 0.211566 -0.198359
0.047102 0.213086 -0.197926
0.0470759 0.214084 -0.197971
0.0470741 0.214562 -0.198492
0.0471766 0.211044 -0.198836
0.0472009 0.210523 -0.199313
0.0476876 0.211036 -0.199325
0.0475833 0.215031 -0.199502
0.0470967 0.214518 -0.199491
0.0472235 0.210479 -0.200312
0.0470949 0.214995 -0.200013
0.0470931 0.215473 -0.200534
0.047246 0.210435 -0.201311
0.0470914 0.21595 -0.201056
0.0470896 0.216427 -0.201577
0.0472703 0.209914 -0.201788
0.0472946 0.209393 -0.202265
0.0477813 0.209906 -0.202277
0.0470878 0.216905 -0.202099
0.0470861 0.217382 -0.202621
0.0478038 0.209862 -0.203275
0.0473171 0.209349 -0.203264
0.0471086 0.217338 -0.203619
0.0473397 0.209305 -0.204263
0.0471311 0.217295 -0.204618
0.0478489 0.209774 -0.205273
0.0473622 0.209261 -0.205261
0.0471797 0.216252 -0.205573
0.0471554 0.216773 -0.205095
0.0478714 0.20973 -0.206272
0.0473847 0.209217 -0.20626
0.0472023 0.216208 -0.206571
0.0478939 0.209686 -0.20727
0.0474073 0.209174 -0.207259
0.0472248 0.216164 -0.20757
0.0474055 0.209651 -0.207781
0.0474037 0.210128 -0.208302
0.0478904 0.210641 -0.208314
0.0477862 0.214636 -0.208492
0.0472734 0.215122 -0.208524
0.0472491 0.215643 -0.208047
0.047402 0.210606 -0.208824
0.0474002 0.211083 -0.209345
0.047322 0.214079 -0.209479
0.0472977 0.2146 -0.209002
0.0479094 0.211552 -0.210356
0.0474228 0.211039 -0.210344
0.0473446 0.214035 -0.210478
0.047421 0.211517 -0.210866
0.0474192 0.211994 -0.211387
0.0479059 0.212507 -0.211399
0.0478798 0.213506 -0.211443
0.0473671 0.213991 -0.211476
0.0474175 0.212471 -0.211909
0.0473914 0.21347 -0.211953
0.0461286 0.21206 -0.197903
0.0461529 0.211539 -0.19838
0.0461025 0.213059 -0.197947
0.0460765 0.214057 -0.197992
0.0460747 0.214535 -0.198514
0.0461772 0.211017 -0.198857
0.0462015 0.210496 -0.199334
0.0460973 0.214491 -0.199512
0.046224 0.210452 -0.200333
0.0460955 0.214968 -0.200034
0.0460937 0.215446 -0.200556
0.0462466 0.210408 -0.201332
0.046092 0.215923 -0.201077
0.0460902 0.2164 -0.201599
0.0462709 0.209887 -0.201809
0.0462952 0.209366 -0.202286
0.0465994 0.216869 -0.202609
0.0461127 0.216357 -0.202598
0.0463177 0.209322 -0.203285
0.046111 0.216834 -0.203119
0.0461092 0.217311 -0.203641
0.046342 0.208801 -0.203762
0.0463663 0.208279 -0.204239
0.046853 0.208792 -0.204251
0.0461317 0.217267 -0.20464
0.0463646 0.208757 -0.204761
0.0463628 0.209234 -0.205283
0.046667 0.216738 -0.205605
0.0461543 0.217224 -0.205638
0.0463853 0.20919 -0.206281
0.0462029 0.216181 -0.206593
0.0461786 0.216702 -0.206116
0.0464079 0.209146 -0.20728
0.0462254 0.216137 -0.207591
0.0469171 0.209615 -0.208291
0.0464304 0.209103 -0.208279
0.0467607 0.215607 -0.208557
0.046248 0.216093 -0.20859
0.0464286 0.20958 -0.208801
0.0464269 0.210057 -0.209322
0.0469135 0.21057 -0.209334
0.0463226 0.214052 -0.2095
0.0462983 0.214573 -0.209023
0.0462723 0.215572 -0.209067
0.0464251 0.210535 -0.209844
0.0464233 0.211012 -0.210366
0.0463452 0.214008 -0.210499
0.0464216 0.21149 -0.210887
0.0464198 0.211967 -0.211409
0.0463677 0.213964 -0.211498
0.0464181 0.212444 -0.21193
0.046392 0.213443 -0.211975
0.0451292 0.212033 -0.197924
0.0451535 0.211512 -0.198402
0.0451274 0.21251 -0.198446
0.0456141 0.213023 -0.198458
0.045588 0.214022 -0.198502
0.0451778 0.21099 -0.198879
0.0452021 0.210469 -0.199356
0.0451257 0.212988 -0.198968
0.0450996 0.213986 -0.199012
0.0450978 0.214464 -0.199534
0.0452246 0.210425 -0.200355
0.0456071 0.214933 -0.200544
0.0451204 0.21442 -0.200532
0.0452489 0.209904 -0.200832
0.0452732 0.209383 -0.201309
0.0457599 0.209896 -0.20132
0.0451186 0.214897 -0.201054
0.0451169 0.215375 -0.201576
0.0456035 0.215888 -0.201587
0.0452958 0.209339 -0.202308
0.0451151 0.215852 -0.202097
0.0451133 0.21633 -0.202619
0.0453183 0.209295 -0.203306
0.0456225 0.216798 -0.203629
0.0451359 0.216286 -0.203618
0.0453426 0.208774 -0.203784
0.0453669 0.208252 -0.204261
0.0451341 0.216763 -0.204139
0.0451323 0.21724 -0.204661
0.0458761 0.208721 -0.205271
0.0453894 0.208209 -0.20526
0.0451549 0.217197 -0.20566
0.0458987 0.208678 -0.20627
0.045412 0.208165 -0.206258
0.0456901 0.216667 -0.206626
0.0451774 0.217153 -0.206659
0.0459212 0.208634 -0.207269
0.0454345 0.208121 -0.207257
0.045226 0.21611 -0.207613
0.0452017 0.216631 -0.207136
0.0454328 0.208598 -0.207779
0.045431 0.209076 -0.2083
0.0452485 0.216066 -0.208612
0.0459402 0.209545 -0.209311
0.0454535 0.209032 -0.209299
0.0453232 0.214025 -0.209521
0.0452989 0.214546 -0.209044
0.0452728 0.215545 -0.209089
0.0454518 0.209509 -0.209821
0.04545 0.209986 -0.210342
0.0459367 0.210499 -0.210354
0.0453457 0.213981 -0.21052
0.0459592 0.210455 -0.211353
0.0454725 0.209943 -0.211341
0.0459331 0.211454 -0.211397
0.0453683 0.213937 -0.211519
0.0454708 0.21042 -0.211863
0.0454447 0.211419 -0.211907
0.0454429 0.211896 -0.212429
0.0459296 0.212409 -0.21244
0.0459036 0.213408 -0.212485
0.0453908 0.213893 -0.212518
0.0454412 0.212373 -0.212951
0.0454151 0.213372 -0.212995
0.0441298 0.212006 -0.197946
0.0441541 0.211485 -0.198423
0.044128 0.212483 -0.198467
0.0441784 0.210963 -0.1989
0.0442027 0.210442 -0.199377
0.0441263 0.212961 -0.198989
0.0441002 0.213959 -0.199033
0.0440984 0.214437 -0.199555
0.044227 0.209921 -0.199854
0.0442513 0.2094 -0.200332
0.044738 0.209912 -0.200343
0.044121 0.214393 -0.200554
0.0442738 0.209356 -0.20133
0.0441192 0.21487 -0.201075
0.0441174 0.215348 -0.201597
0.0442964 0.209312 -0.202329
0.0441157 0.215825 -0.202119
0.0441139 0.216302 -0.20264
0.0443207 0.208791 -0.202806
0.044345 0.208269 -0.203283
0.0448316 0.208782 -0.203295
0.0441365 0.216259 -0.203639
0.0443675 0.208225 -0.204282
0.0441347 0.216736 -0.204161
0.0441329 0.217213 -0.204682
0.04439 0.208181 -0.205281
0.0441555 0.21717 -0.205681
0.0444126 0.208138 -0.20628
0.044178 0.217126 -0.20668
0.0444351 0.208094 -0.207279
0.0442266 0.216083 -0.207634
0.0442023 0.216604 -0.207157
0.0449443 0.208563 -0.208289
0.0444577 0.20805 -0.208277
0.0442491 0.216039 -0.208633
0.0449669 0.208519 -0.209288
0.0444802 0.208006 -0.209276
0.0443238 0.213998 -0.209543
0.0442995 0.214519 -0.209066
0.0442734 0.215518 -0.20911
0.0444784 0.208483 -0.209798
0.0444767 0.208961 -0.210319
0.0449633 0.209474 -0.210331
0.0443463 0.213954 -0.210542
0.0449859 0.20943 -0.21133
0.0444992 0.208917 -0.211318
0.0443689 0.21391 -0.21154
0.0444974 0.209394 -0.21184
0.0444714 0.210393 -0.211884
0.0444696 0.21087 -0.212406
0.0449563 0.211383 -0.212417
0.0443914 0.213866 -0.212539
0.0444678 0.211348 -0.212927
0.0444661 0.211825 -0.213449
0.0449527 0.212338 -0.213461
0.04444 0.212824 -0.213494
0.0444157 0.213345 -0.213016
0.0444643 0.212303 -0.213971
0.0436414 0.21197 -0.198456
0.0432051 0.209938 -0.198877
0.0432294 0.209416 -0.199354
0.043716 0.209929 -0.199366
0.043179 0.210936 -0.198921
0.0431529 0.211935 -0.198966
0.0431269 0.212934 -0.19901
0.0431251 0.213411 -0.199532
0.0436118 0.213924 -0.199543
0.0432519 0.209373 -0.200353
0.0431233 0.213888 -0.200054
0.0431216 0.214366 -0.200575
0.0432762 0.208851 -0.20083
0.0433005 0.20833 -0.201307
0.0437872 0.208843 -0.201319
0.0431198 0.214843 -0.201097
0.043118 0.215321 -0.201618
0.0438097 0.208799 -0.202318
0.043323 0.208286 -0.202306
0.0431163 0.215798 -0.20214
0.0431145 0.216275 -0.202662
0.0433473 0.207765 -0.202783
0.0433716 0.207244 -0.20326
0.0438583 0.207756 -0.203272
0.0431371 0.216232 -0.20366
0.0438808 0.207713 -0.204271
0.0433942 0.2072 -0.204259
0.0436463 0.216701 -0.204671
0.0431596 0.216188 -0.204659
0.0439034 0.207669 -0.205269
0.0434167 0.207156 -0.205258
0.0431578 0.216665 -0.205181
0.0431561 0.217142 -0.205702
0.0439259 0.207625 -0.206268
0.0434392 0.207112 -0.206257
0.0431786 0.217099 -0.206701
0.0439484 0.207581 -0.207267
0.0434618 0.207068 -0.207255
0.0432272 0.216056 -0.207656
0.0432029 0.216577 -0.207178
0.04346 0.207545 -0.207777
0.0434582 0.208023 -0.208299
0.0432497 0.216012 -0.208654
0.0434808 0.207979 -0.209297
0.0438111 0.214484 -0.209576
0.0432983 0.21497 -0.209609
0.043274 0.215491 -0.209132
0.04399 0.208448 -0.210308
0.0435033 0.207935 -0.210296
0.0433469 0.213927 -0.210563
0.0433226 0.214448 -0.210086
0.0435016 0.208412 -0.210818
0.0434998 0.20889 -0.211339
0.0433695 0.213883 -0.211562
0.044009 0.209359 -0.21235
0.0435223 0.208846 -0.212338
0.0439829 0.210358 -0.212394
0.043392 0.213839 -0.212561
0.0435206 0.209323 -0.21286
0.0435188 0.209801 -0.213382
0.0440055 0.210314 -0.213393
0.0439794 0.211312 -0.213438
0.0434406 0.212797 -0.213515
0.0434163 0.213318 -0.213038
0.044028 0.21027 -0.214392
0.0435413 0.209757 -0.21438
0.043491 0.211277 -0.213948
0.0435153 0.210756 -0.214425
0.0434649 0.212276 -0.213992
0.0435396 0.210234 -0.214902
0.0422056 0.209911 -0.198898
0.0422299 0.209389 -0.199375
0.0421796 0.210909 -0.198943
0.0421535 0.211908 -0.198987
0.0421518 0.212385 -0.199509
0.0426384 0.212898 -0.19952
0.0422525 0.209345 -0.200374
0.04215 0.212863 -0.20003
0.0421239 0.213861 -0.200075
0.0421222 0.214339 -0.200597
0.0422768 0.208824 -0.200851
0.0423011 0.208303 -0.201329
0.0426314 0.214808 -0.201607
0.0421447 0.214295 -0.201595
0.0423254 0.207782 -0.201806
0.0423497 0.20726 -0.202283
0.0428364 0.207773 -0.202294
0.0421429 0.214772 -0.202117
0.0421412 0.21525 -0.202639
0.0426278 0.215763 -0.20265
0.0423722 0.207217 -0.203282
0.0426504 0.215719 -0.203649
0.0421637 0.215206 -0.203637
0.0423948 0.207173 -0.20428
0.0421619 0.215683 -0.204159
0.0421602 0.216161 -0.204681
0.0424173 0.207129 -0.205279
0.0421584 0.216638 -0.205202
0.0421567 0.217115 -0.205724
0.0424398 0.207085 -0.206278
0.0421792 0.217072 -0.206723
0.0424624 0.207041 -0.207277
0.0422278 0.216029 -0.207677
0.0422035 0.21655 -0.2072
0.0429716 0.20751 -0.208287
0.0424849 0.206997 -0.208276
0.0422503 0.215985 -0.208676
0.0429941 0.207466 -0.209286
0.0425074 0.206953 -0.209274
0.0422989 0.214943 -0.20963
0.0422746 0.215464 -0.209153
0.0425057 0.207431 -0.209796
0.0425039 0.207908 -0.210318
0.0428342 0.214413 -0.210596
0.0423215 0.214899 -0.210629
0.0430131 0.208377 -0.211328
0.0425264 0.207864 -0.211316
0.0423701 0.213856 -0.211583
0.0423458 0.214377 -0.211106
0.0430357 0.208333 -0.212327
0.042549 0.20782 -0.212315
0.0423926 0.213812 -0.212582
0.0425472 0.208298 -0.212837
0.0425455 0.208775 -0.213358
0.0430321 0.209288 -0.21337
0.0424412 0.21277 -0.213536
0.0424169 0.213291 -0.213059
0.0430547 0.209244 -0.214369
0.042568 0.208731 -0.214357
0.0430025 0.211241 -0.214458
0.0429765 0.21224 -0.214502
0.0424637 0.212726 -0.214535
0.0425662 0.209209 -0.214879
0.0425402 0.210207 -0.214923
0.0425141 0.211206 -0.214968
0.042488 0.212205 -0.215012
0.0412323 0.208885 -0.198875
0.0412566 0.208364 -0.199352
0.0417433 0.208876 -0.199364
0.0412062 0.209884 -0.19892
0.0411802 0.210882 -0.198964
0.0411541 0.211881 -0.199009
0.0411524 0.212358 -0.19953
0.0417658 0.208833 -0.200363
0.0412791 0.20832 -0.200351
0.0416616 0.212827 -0.200541
0.0411749 0.212314 -0.200529
0.0416355 0.213826 -0.200585
0.0413034 0.207798 -0.200828
0.0413277 0.207277 -0.201305
0.0418144 0.20779 -0.201317
0.0411731 0.212792 -0.201051
0.0411471 0.213791 -0.201095
0.0411453 0.214268 -0.201617
0.0413503 0.207233 -0.202304
0.0411435 0.214745 -0.202138
0.0411418 0.215223 -0.20266
0.0413746 0.206712 -0.202781
0.0413989 0.206191 -0.203259
0.0418856 0.206704 -0.20327
0.0411643 0.215179 -0.203659
0.0419081 0.20666 -0.204269
0.0414214 0.206147 -0.204257
0.0411625 0.215656 -0.20418
0.0411608 0.216134 -0.204702
0.0419306 0.206616 -0.205268
0.041444 0.206103 -0.205256
0.041159 0.216611 -0.205224
0.0411572 0.217088 -0.205745
0.0419532 0.206572 -0.206266
0.0414665 0.206059 -0.206255
0.0416665 0.217557 -0.206756
0.0411555 0.217566 -0.206267
0.0411537 0.218043 -0.206788
0.0419757 0.206528 -0.207265
0.041489 0.206015 -0.207254
0.0417151 0.216515 -0.20771
0.0412023 0.217001 -0.207743
0.041178 0.217522 -0.207266
0.0414873 0.206493 -0.207775
0.0414855 0.20697 -0.208297
0.0412509 0.215958 -0.208697
0.0412266 0.216479 -0.20822
0.041508 0.206926 -0.209296
0.0412995 0.214916 -0.209651
0.0412752 0.215437 -0.209174
0.0420172 0.207395 -0.210306
0.0415306 0.206882 -0.210295
0.0413481 0.213873 -0.210606
0.0413238 0.214394 -0.210129
0.0418348 0.214386 -0.210617
0.0420398 0.207351 -0.211305
0.0415531 0.206838 -0.211293
0.0413707 0.213829 -0.211605
0.0415513 0.207316 -0.211815
0.0415496 0.207793 -0.212337
0.0413932 0.213785 -0.212603
0.0420588 0.208262 -0.213347
0.0415721 0.207749 -0.213335
0.0414418 0.212743 -0.213558
0.0414175 0.213264 -0.21308
0.0420813 0.208218 -0.214346
0.0415947 0.207706 -0.214334
0.0414643 0.212699 -0.214556
0.0415929 0.208183 -0.214856
0.0415911 0.20866 -0.215377
0.0420778 0.209173 -0.215389
0.0420517 0.210172 -0.215433
0.041539 0.210658 -0.215466
0.0415147 0.211179 -0.214989
0.0414886 0.212178 -0.215034
0.0415894 0.209138 -0.215899
0.0415633 0.210136 -0.215943
0.0402329 0.208858 -0.198897
0.0402572 0.208337 -0.199374
0.0402068 0.209857 -0.198941
0.0401808 0.210855 -0.198985
0.040179 0.211333 -0.199507
0.0406657 0.211845 -0.199519
0.0402797 0.208293 -0.200373
0.0401772 0.21181 -0.200029
0.0401755 0.212287 -0.20055
0.040304 0.207771 -0.20085
0.0403283 0.20725 -0.201327
0.0406847 0.212756 -0.201561
0.040198 0.212244 -0.201549
0.0406586 0.213755 -0.201605
0.0403509 0.207206 -0.202326
0.0401963 0.212721 -0.202071
0.0401702 0.21372 -0.202115
0.0401441 0.214718 -0.20216
0.0401424 0.215196 -0.202681
0.0403752 0.206685 -0.202803
0.0403995 0.206164 -0.20328
0.0401649 0.215152 -0.20368
0.040422 0.20612 -0.204279
0.0401631 0.215629 -0.204202
0.0401614 0.216107 -0.204723
0.0404445 0.206076 -0.205277
0.0401596 0.216584 -0.205245
0.0406445 0.217574 -0.205778
0.0401335 0.217583 -0.205289
0.0401318 0.21806 -0.205811
0.0404671 0.206032 -0.206276
0.0401543 0.218016 -0.20681
0.0404896 0.205988 -0.207275
0.0406896 0.217486 -0.207776
0.0401769 0.217972 -0.207809
0.0409988 0.206457 -0.208285
0.0405122 0.205944 -0.208274
0.0402515 0.215931 -0.208718
0.0402272 0.216452 -0.208241
0.0402012 0.217451 -0.208286
0.0410214 0.206413 -0.209284
0.0405347 0.205901 -0.209273
0.0403001 0.214889 -0.209673
0.0402758 0.21541 -0.209196
0.0410439 0.206369 -0.210283
0.0405572 0.205857 -0.210271
0.0403487 0.213846 -0.210627
0.0403244 0.214367 -0.21015
0.0410664 0.206326 -0.211282
0.0405798 0.205813 -0.21127
0.0403973 0.212803 -0.211581
0.040373 0.213325 -0.211104
0.040884 0.213316 -0.211593
0.040578 0.20629 -0.211792
0.0405762 0.206768 -0.212313
0.0410629 0.20728 -0.212325
0.0409065 0.213272 -0.212592
0.0404199 0.21276 -0.21258
0.0410854 0.207237 -0.213324
0.0405988 0.206724 -0.213312
0.0404424 0.212716 -0.213579
0.041108 0.207193 -0.214323
0.0406213 0.20668 -0.214311
0.040491 0.211673 -0.214533
0.0404667 0.212194 -0.214056
0.0409777 0.212186 -0.214545
0.0406195 0.207157 -0.214833
0.0406178 0.207635 -0.215354
0.0411045 0.208147 -0.215366
0.0410263 0.211143 -0.215499
0.0405135 0.211629 -0.215532
0.040616 0.208112 -0.215876
0.04059 0.209111 -0.21592
0.0405639 0.210109 -0.215965
0.0405378 0.211108 -0.216009
0.0392335 0.208831 -0.198918
0.0392578 0.20831 -0.199395
0.0392074 0.20983 -0.198962
0.0392057 0.210307 -0.199484
0.0396923 0.21082 -0.199496
0.0392821 0.207788 -0.199872
0.0393064 0.207267 -0.200349
0.0397931 0.20778 -0.200361
0.0392039 0.210784 -0.200006
0.0391778 0.211783 -0.20005
0.0391761 0.21226 -0.200572
0.0393307 0.206746 -0.200827
0.039355 0.206224 -0.201304
0.0398417 0.206737 -0.201315
0.0391986 0.212217 -0.20157
0.0398642 0.206693 -0.202314
0.0393775 0.206181 -0.202303
0.0391968 0.212694 -0.202092
0.0391708 0.213693 -0.202137
0.0391447 0.214691 -0.202181
0.039143 0.215169 -0.202703
0.0394001 0.206137 -0.203301
0.0391655 0.215125 -0.203701
0.0394226 0.206093 -0.2043
0.0391637 0.215602 -0.204223
0.0396486 0.216592 -0.204756
0.0391377 0.216601 -0.204268
0.0391359 0.217078 -0.204789
0.0394469 0.205572 -0.204777
0.0394712 0.20505 -0.205254
0.0399579 0.205563 -0.205266
0.0391341 0.217556 -0.205311
0.0391324 0.218033 -0.205832
0.0394694 0.205528 -0.205776
0.0394677 0.206005 -0.206298
0.0391549 0.217989 -0.206831
0.039492 0.205484 -0.206775
0.0395163 0.204963 -0.207252
0.0400029 0.205475 -0.207264
0.0391774 0.217945 -0.20783
0.0395145 0.20544 -0.207774
0.0395127 0.205917 -0.208295
0.0392521 0.215904 -0.20874
0.0392278 0.216425 -0.208263
0.0392017 0.217424 -0.208307
0.0395353 0.205873 -0.209294
0.0397874 0.215374 -0.209706
0.0392746 0.21586 -0.209739
0.0395578 0.20583 -0.210293
0.0393493 0.213819 -0.210648
0.039325 0.21434 -0.210171
0.0392989 0.215339 -0.210216
0.0395804 0.205786 -0.211292
0.0393979 0.212776 -0.211603
0.0393736 0.213298 -0.211126
0.0400896 0.206255 -0.212302
0.0396029 0.205742 -0.21229
0.0394204 0.212733 -0.212602
0.0401121 0.206211 -0.213301
0.0396254 0.205698 -0.213289
0.039469 0.21169 -0.213556
0.0394447 0.212211 -0.213079
0.0399557 0.212203 -0.213567
0.0396237 0.206175 -0.213811
0.0396219 0.206653 -0.214332
0.0394916 0.211646 -0.214555
0.0401311 0.207122 -0.215343
0.0396444 0.206609 -0.215331
0.0395402 0.210604 -0.215509
0.0395159 0.211125 -0.215032
0.0400269 0.211116 -0.215521
0.0396687 0.206088 -0.215808
0.039693 0.205566 -0.216285
0.0401797 0.206079 -0.216297
0.0401536 0.207078 -0.216341
0.0401276 0.208077 -0.216386
0.0396148 0.208562 -0.216419
0.0395905 0.209084 -0.215942
0.0395645 0.210082 -0.215986
0.0396913 0.206044 -0.216807
0.0396652 0.207042 -0.216852
0.0396391 0.208041 -0.216896
0.0387451 0.208795 -0.199428
0.038719 0.209794 -0.199472
0.0382827 0.207761 -0.199894
0.038307 0.20724 -0.200371
0.0382566 0.20876 -0.199938
0.0387415 0.20975 -0.200471
0.0382549 0.209237 -0.20046
0.0387155 0.210749 -0.200516
0.0386894 0.211748 -0.20056
0.0383313 0.206719 -0.200848
0.0383556 0.206197 -0.201325
0.0382531 0.209715 -0.200981
0.038227 0.210713 -0.201026
0.038201 0.211712 -0.20107
0.0381992 0.212189 -0.201592
0.0383781 0.206154 -0.202324
0.0381974 0.212667 -0.202113
0.0381714 0.213666 -0.202158
0.0381453 0.214664 -0.202202
0.0381435 0.215142 -0.202724
0.0384024 0.205632 -0.202801
0.0384267 0.205111 -0.203278
0.0389134 0.205624 -0.20329
0.0386528 0.215611 -0.203734
0.0381418 0.215619 -0.203246
0.03814 0.216096 -0.203767
0.0389359 0.20558 -0.204289
0.0384493 0.205067 -0.204277
0.0381383 0.216574 -0.204289
0.0386232 0.217564 -0.204822
0.0381122 0.217572 -0.204333
0.0381104 0.21805 -0.204855
0.0384718 0.205023 -0.205276
0.038133 0.218006 -0.205854
0.038981 0.205492 -0.206286
0.0384943 0.204979 -0.206275
0.0381555 0.217962 -0.206853
0.0385169 0.204936 -0.207273
0.038178 0.217918 -0.207851
0.0390261 0.205404 -0.208284
0.0385394 0.204892 -0.208272
0.0382527 0.215877 -0.208761
0.0382284 0.216398 -0.208284
0.0382023 0.217397 -0.208328
0.0390486 0.205361 -0.209282
0.0385619 0.204848 -0.209271
0.0382752 0.215833 -0.20976
0.0390712 0.205317 -0.210281
0.0385845 0.204804 -0.21027
0.038376 0.212793 -0.210625