<VTKFile type="UnstructuredGrid" version="0.1" byte_order="BigEndian">
  <UnstructuredGrid>
    <Piece NumberOfPoints="23102" NumberOfCells="46208">
      <PointData>
        <DataArray type="Float64" Name="position" NumberOfComponents="3" format="ascii">
0.0554293 0.224898 -0.135318
0.05543 0.224401 -0.135821
0.0559279 0.224903 -0.135819
0.0554258 0.225401 -0.135815
0.0559252 0.224909 -0.136819
0.0554273 0.224407 -0.136821
0.0554231 0.225407 -0.136815
0.0554281 0.22391 -0.137324
0.0554289 0.223413 -0.137827
0.0559268 0.223915 -0.137825
0.0559225 0.224915 -0.137819
0.0554204 0.225413 -0.137815
0.0559241 0.223921 -0.138825
0.0554262 0.223419 -0.138827
0.0559198 0.224921 -0.138819
0.0554177 0.225419 -0.138815
0.0559214 0.223927 -0.139825
0.0554235 0.223425 -0.139827
0.0559171 0.224927 -0.139819
0.055415 0.225425 -0.139815
0.05542 0.223928 -0.140324
0.0554158 0.224928 -0.140318
0.0544377 0.222894 -0.135327
0.0544385 0.222397 -0.13583
0.0549364 0.222899 -0.135828
0.0549322 0.223899 -0.135822
0.0544335 0.223894 -0.135321
0.0544293 0.224894 -0.135315
0.0544258 0.225397 -0.135812
0.0549337 0.222905 -0.136828
0.0544358 0.222403 -0.13683
0.0549295 0.223905 -0.136822
0.0544231 0.225403 -0.136812
0.054931 0.222911 -0.137828
0.0544331 0.222409 -0.13783
0.0544204 0.225409 -0.137812
0.0549283 0.222917 -0.138828
0.0544304 0.222415 -0.13883
0.0544177 0.225415 -0.138812
0.0549256 0.222923 -0.139828
0.0544277 0.22242 -0.13983
0.054415 0.22542 -0.139812
0.0544243 0.222923 -0.140327
0.0544208 0.223426 -0.140824
0.0549187 0.223928 -0.140822
0.0549145 0.224928 -0.140817
0.0544123 0.225426 -0.140812
0.054916 0.223934 -0.141822
0.0544181 0.223432 -0.141824
0.0549118 0.224934 -0.141817
0.0544096 0.225432 -0.141812
0.0549133 0.22394 -0.142822
0.0544154 0.223438 -0.142824
0.0544104 0.224935 -0.142315
0.0544112 0.224438 -0.142818
0.054412 0.223941 -0.143321
0.053442 0.22189 -0.13533
0.0534428 0.221393 -0.135833
0.0539406 0.221895 -0.135831
0.0534378 0.22289 -0.135324
0.0534335 0.22389 -0.135318
0.0534293 0.22489 -0.135313
0.0534258 0.225393 -0.13581
0.0539379 0.221901 -0.136831
0.0534401 0.221399 -0.136833
0.0534231 0.225399 -0.13681
0.0539353 0.221907 -0.137831
0.0534374 0.221405 -0.137833
0.0534204 0.225404 -0.13781
0.0539326 0.221913 -0.138831
0.0534347 0.22141 -0.138833
0.0534177 0.22541 -0.13881
0.0539299 0.221918 -0.139831
0.053432 0.221416 -0.139833
0.053415 0.225416 -0.13981
0.0534285 0.221919 -0.14033
0.0534251 0.222422 -0.140827
0.0539229 0.222924 -0.140826
0.0534124 0.225422 -0.14081
0.0539202 0.22293 -0.141826
0.0534224 0.222428 -0.141827
0.0534097 0.225428 -0.14181
0.0534189 0.222931 -0.142324
0.0534154 0.223434 -0.142821
0.0539091 0.224936 -0.142814
0.053407 0.225434 -0.14281
0.053412 0.223937 -0.143318
0.0534077 0.224937 -0.143312
0.052442 0.221886 -0.135327
0.0524428 0.221389 -0.13583
0.0524378 0.222886 -0.135322
0.0524335 0.223886 -0.135316
0.0524301 0.224389 -0.135813
0.052928 0.224891 -0.135811
0.0524401 0.221395 -0.13683
0.0524266 0.224892 -0.13631
0.0524231 0.225394 -0.136807
0.0524409 0.220897 -0.137333
0.0524416 0.2204 -0.137836
0.0529395 0.220902 -0.137835
0.0524205 0.2254 -0.137807
0.0524382 0.220903 -0.138333
0.0524347 0.221406 -0.13883
0.0524178 0.225406 -0.138807
0.0524355 0.220909 -0.139333
0.0524362 0.220412 -0.139836
0.0529341 0.220914 -0.139835
0.0524151 0.225412 -0.139807
0.0524328 0.220915 -0.140333
0.0524293 0.221418 -0.14083
0.0529272 0.22192 -0.140829
0.0524124 0.225418 -0.140807
0.0529245 0.221926 -0.141829
0.0524266 0.221424 -0.14183
0.0524097 0.225424 -0.141807
0.0524231 0.221927 -0.142327
0.0524197 0.222429 -0.142824
0.0529176 0.222932 -0.142823
0.052407 0.225429 -0.142807
0.0524162 0.222932 -0.143321
0.0524128 0.223435 -0.143819
0.0529106 0.223937 -0.143817
0.0529064 0.224937 -0.143811
0.0524043 0.225435 -0.143807
0.0524093 0.223938 -0.144316
0.0524051 0.224938 -0.14431
0.0514447 0.221876 -0.134325
0.0514455 0.221379 -0.134828
0.0519434 0.221881 -0.134826
0.0519391 0.222881 -0.13482
0.0514405 0.222876 -0.134319
0.051437 0.223379 -0.134816
0.0514463 0.220882 -0.135331
0.051447 0.220384 -0.135834
0.0519449 0.220887 -0.135832
0.0514336 0.223881 -0.135313
0.0514301 0.224384 -0.13581
0.0519422 0.220892 -0.136832
0.0514443 0.22039 -0.136834
0.0514266 0.224887 -0.136307
0.0514232 0.22539 -0.136804
0.0514416 0.220396 -0.137834
0.0514205 0.225396 -0.137804
0.0519368 0.220904 -0.138832
0.0514389 0.220402 -0.138834
0.0514178 0.225402 -0.138804
0.0514362 0.220408 -0.139833
0.0514151 0.225408 -0.139804
0.0519314 0.220916 -0.140832
0.0514335 0.220414 -0.140833
0.0514124 0.225413 -0.140804
0.0519287 0.220922 -0.141832
0.0514309 0.220419 -0.141833
0.0514097 0.225419 -0.141804
0.051926 0.220927 -0.142832
0.0514282 0.220425 -0.142833
0.0519218 0.221927 -0.142826
0.051407 0.225425 -0.142804
0.0514247 0.220928 -0.143331
0.0514205 0.221928 -0.143325
0.051417 0.222431 -0.143822
0.0519149 0.222933 -0.14382
0.0514043 0.225431 -0.143804
0.0514135 0.222934 -0.144319
0.0514093 0.223934 -0.144313
0.0514051 0.224934 -0.144307
0.0504517 0.220866 -0.133328
0.0504524 0.220369 -0.133831
0.0509503 0.220871 -0.133829
0.0509461 0.221871 -0.133824
0.0504474 0.221866 -0.133322
0.050444 0.222368 -0.133819
0.0509476 0.220876 -0.134829
0.0504497 0.220374 -0.134831
0.0504405 0.222871 -0.134316
0.050437 0.223374 -0.134813
0.0504547 0.218877 -0.13534
0.0504555 0.21838 -0.135843
0.0509534 0.218882 -0.135841
0.0509491 0.219882 -0.135835
0.0504505 0.219877 -0.135334
0.0504336 0.223877 -0.13531
0.0504301 0.22438 -0.135808
0.050452 0.218883 -0.13634
0.0504486 0.219386 -0.136837
0.0509465 0.219888 -0.136835
0.0509253 0.224888 -0.136806
0.0504274 0.224386 -0.136808
0.0509438 0.219894 -0.137835
0.0504459 0.219392 -0.137837
0.0509226 0.224894 -0.137806
0.0504247 0.224392 -0.137808
0.0509411 0.2199 -0.138835
0.0504432 0.219398 -0.138837
0.0504212 0.224895 -0.138305
0.0504178 0.225398 -0.138802
0.050444 0.218901 -0.13934
0.0504447 0.218404 -0.139843
0.0509426 0.218906 -0.139841
0.0509384 0.219906 -0.139835
0.0504151 0.225403 -0.139802
0.0504413 0.218906 -0.14034
0.0504378 0.219409 -0.140837
0.0509357 0.219911 -0.140835
0.0504124 0.225409 -0.140802
0.050933 0.219917 -0.141835
0.0504351 0.219415 -0.141837
0.0504097 0.225415 -0.141802
0.0509303 0.219923 -0.142835
0.0504324 0.219421 -0.142837
0.050407 0.225421 -0.142802
0.0504289 0.219924 -0.143334
0.0504247 0.220924 -0.143328
0.0504212 0.221427 -0.143825
0.0509191 0.221929 -0.143823
0.0504043 0.225427 -0.143802
0.0504178 0.22193 -0.144322
0.0504135 0.22293 -0.144316
0.0504093 0.22393 -0.14431
0.0504051 0.22493 -0.144304
0.0494559 0.219861 -0.133331
0.0494567 0.219364 -0.133834
0.0499545 0.219866 -0.133833
0.0494517 0.220861 -0.133325
0.0494474 0.221861 -0.13332
0.049444 0.222364 -0.133817
0.0494574 0.218867 -0.134337
0.0494582 0.21837 -0.13484
0.0499561 0.218872 -0.134838
0.0499519 0.219872 -0.134833
0.0494405 0.222867 -0.134314
0.049437 0.22337 -0.134811
0.0494555 0.218376 -0.13584
0.0494336 0.223873 -0.135308
0.0494301 0.224376 -0.135805
0.0499507 0.218884 -0.136838
0.0494528 0.218382 -0.13684
0.0494274 0.224382 -0.136805
0.049948 0.21889 -0.137838
0.0494501 0.218388 -0.13784
0.0494247 0.224388 -0.137805
0.0499453 0.218896 -0.138838
0.0494474 0.218393 -0.13884
0.0499199 0.224895 -0.138803
0.049422 0.224393 -0.138805
0.0494447 0.218399 -0.13984
0.0494186 0.224896 -0.139302
0.0494151 0.225399 -0.139799
0.0499399 0.218907 -0.140838
0.049442 0.218405 -0.14084
0.0494124 0.225405 -0.140799
0.0499372 0.218913 -0.141838
0.0494393 0.218411 -0.14184
0.0494097 0.225411 -0.141799
0.0499345 0.218919 -0.142838
0.0494367 0.218417 -0.14284
0.049407 0.225417 -0.142799
0.0494332 0.21892 -0.143337
0.049429 0.21992 -0.143331
0.0494255 0.220423 -0.143828
0.0499234 0.220925 -0.143826
0.0494086 0.224422 -0.143805
0.0494078 0.22492 -0.143302
0.0499064 0.224925 -0.143803
0.049422 0.220925 -0.144325
0.0494178 0.221925 -0.144319
0.0494136 0.222925 -0.144313
0.0494093 0.223925 -0.144308
0.0484628 0.218851 -0.132334
0.0484636 0.218354 -0.132837
0.0489615 0.218856 -0.132836
0.0489573 0.219856 -0.13283
0.0484586 0.219851 -0.132329
0.048953 0.220856 -0.132824
0.0484544 0.220851 -0.132323
0.0484509 0.221354 -0.13282
0.0489588 0.218862 -0.133836
0.0484609 0.21836 -0.133837
0.0484474 0.221857 -0.133317
0.048444 0.22236 -0.133814
0.0484582 0.218366 -0.134837
0.0489392 0.222868 -0.134812
0.0484413 0.222366 -0.134814
0.048459 0.217869 -0.13534
0.0484598 0.217372 -0.135843
0.0489576 0.217874 -0.135842
0.0484378 0.222869 -0.135311
0.0484344 0.223372 -0.135808
0.0489322 0.223874 -0.135806
0.0489549 0.21788 -0.136841
0.0484571 0.217378 -0.136843
0.0484309 0.223875 -0.136305
0.0484274 0.224377 -0.136802
0.0489522 0.217886 -0.137841
0.0484544 0.217383 -0.137843
0.0484247 0.224383 -0.137802
0.0489496 0.217891 -0.138841
0.0484517 0.217389 -0.138843
0.048422 0.224389 -0.138802
0.0489469 0.217897 -0.139841
0.048449 0.217395 -0.139843
0.0489172 0.224897 -0.139801
0.0484193 0.224395 -0.139802
0.0489442 0.217903 -0.140841
0.0484463 0.217401 -0.140843
0.0489145 0.224903 -0.140801
0.0484167 0.224401 -0.140802
0.0489415 0.217909 -0.141841
0.0484436 0.217407 -0.141843
0.0489118 0.224909 -0.1418
0.048414 0.224407 -0.141802
0.0489388 0.217915 -0.142841
0.0484409 0.217413 -0.142843
0.0489091 0.224915 -0.1428
0.0484113 0.224412 -0.142802
0.0484374 0.217915 -0.14334
0.0484332 0.218915 -0.143334
0.0484297 0.219418 -0.143831
0.0489276 0.21992 -0.14383
0.0484086 0.224418 -0.143802
0.0484263 0.219921 -0.144328
0.048422 0.220921 -0.144322
0.0484186 0.221424 -0.14482
0.0489165 0.221926 -0.144818
0.0489122 0.222926 -0.144812
0.0484101 0.223424 -0.144808
0.0484093 0.223921 -0.144305
0.0484151 0.221927 -0.145317
0.0484109 0.222927 -0.145311
0.0474671 0.217847 -0.132338
0.0474679 0.21735 -0.13284
0.0479657 0.217852 -0.132839
0.0474629 0.218847 -0.132332
0.0474586 0.219847 -0.132326
0.0474544 0.220847 -0.13232
0.0474509 0.22135 -0.132817
0.047963 0.217858 -0.133839
0.0474652 0.217356 -0.13384
0.0479461 0.221858 -0.133816
0.0474482 0.221356 -0.133817
0.0479603 0.217864 -0.134839
0.0474625 0.217362 -0.13484
0.0479434 0.221864 -0.134815
0.0474455 0.221362 -0.134817
0.0474598 0.217368 -0.13584
0.0474421 0.221865 -0.135314
0.0474386 0.222367 -0.135811
0.0479365 0.22287 -0.13581
0.0474571 0.217373 -0.13684
0.0474351 0.22287 -0.136308
0.0474317 0.223373 -0.136805
0.0479296 0.223875 -0.136804
0.0474544 0.217379 -0.13784
0.0479269 0.223881 -0.137804
0.047429 0.223379 -0.137805
0.0474517 0.217385 -0.13884
0.0474255 0.223882 -0.138302
0.0474221 0.224385 -0.138799
0.0474525 0.216888 -0.139343
0.0474532 0.216391 -0.139846
0.0479511 0.216893 -0.139845
0.0474194 0.224391 -0.139799
0.0479484 0.216899 -0.140845
0.0474505 0.216397 -0.140846
0.0474209 0.223397 -0.140805
0.0474201 0.223894 -0.140302
0.0479188 0.223899 -0.140804
0.0479457 0.216905 -0.141845
0.0474478 0.216403 -0.141846
0.0479161 0.223904 -0.141804
0.0474182 0.223402 -0.141805
0.047943 0.21691 -0.142845
0.0474451 0.216408 -0.142846
0.0479134 0.22391 -0.142804
0.0474155 0.223408 -0.142805
0.0474417 0.216911 -0.143343
0.0474382 0.217414 -0.14384
0.0479361 0.217916 -0.143839
0.0479319 0.218916 -0.143833
0.0479107 0.223916 -0.143804
0.0474128 0.223414 -0.143805
0.0474348 0.217917 -0.144337
0.0474305 0.218917 -0.144331
0.0474263 0.219917 -0.144326
0.0474228 0.22042 -0.144823
0.0479207 0.220922 -0.144821
0.0474144 0.22242 -0.144811
0.0474136 0.222917 -0.144308
0.0479122 0.222922 -0.144809
0.0474194 0.220923 -0.14532
0.0474151 0.221923 -0.145314
0.0464671 0.217843 -0.132335
0.0464679 0.217346 -0.132838
0.0464629 0.218843 -0.132329
0.0464594 0.219346 -0.132826
0.0469573 0.219848 -0.132825
0.046953 0.220848 -0.132819
0.0464729 0.215849 -0.133347
0.0464736 0.215352 -0.133849
0.0469715 0.215854 -0.133848
0.0469673 0.216854 -0.133842
0.0464686 0.216849 -0.133341
0.0469546 0.219854 -0.133825
0.0464567 0.219352 -0.133826
0.0469504 0.220854 -0.133819
0.0464702 0.215855 -0.134347
0.0464667 0.216357 -0.134844
0.0469646 0.21686 -0.134842
0.0464532 0.219854 -0.134323
0.0469477 0.220859 -0.134819
0.0464498 0.220357 -0.13482
0.0469619 0.216865 -0.135842
0.046464 0.216363 -0.135844
0.0464463 0.22086 -0.135317
0.0464429 0.221363 -0.135814
0.0469407 0.221865 -0.135813
0.0469592 0.216871 -0.136842
0.0464613 0.216369 -0.136844
0.0464394 0.221866 -0.136311
0.0464359 0.222369 -0.136809
0.0469338 0.222871 -0.136807
0.0469565 0.216877 -0.137842
0.0464586 0.216375 -0.137844
0.0469311 0.222877 -0.137807
0.0464332 0.222375 -0.137809
0.0464594 0.215878 -0.138346
0.0464602 0.215381 -0.138849
0.046958 0.215883 -0.138848
0.0469538 0.216883 -0.138842
0.0464298 0.222878 -0.138306
0.0464263 0.223381 -0.138803
0.0469242 0.223883 -0.138801
0.0469554 0.215889 -0.139848
0.0464575 0.215387 -0.139849
0.0469215 0.223889 -0.139801
0.0464236 0.223386 -0.139803
0.0469527 0.215895 -0.140848
0.0464548 0.215392 -0.140849
0.0464209 0.223392 -0.140803
0.0464513 0.215895 -0.141346
0.0464479 0.216398 -0.141843
0.0464182 0.223398 -0.141803
0.0464486 0.215901 -0.142346
0.0464494 0.215404 -0.142849
0.0469473 0.215906 -0.142848
0.0464155 0.223404 -0.142803
0.0464459 0.215907 -0.143346
0.0464425 0.21641 -0.143843
0.0469403 0.216912 -0.143842
0.0464171 0.22241 -0.143808
0.0464163 0.222907 -0.143305
0.0469149 0.222912 -0.143807
0.046439 0.216913 -0.14434
0.0464348 0.217913 -0.144335
0.0464305 0.218913 -0.144329
0.0464271 0.219416 -0.144826
0.0469249 0.219918 -0.144824
0.0464186 0.221416 -0.144814
0.0464178 0.221913 -0.144311
0.0469165 0.221918 -0.144813
0.0464236 0.219919 -0.145323
0.0464194 0.220919 -0.145317
0.0454756 0.215839 -0.132344
0.0454764 0.215342 -0.132847
0.0459742 0.215844 -0.132845
0.04597 0.216844 -0.132839
0.0454713 0.216839 -0.132338
0.0454671 0.217839 -0.132332
0.0454636 0.218342 -0.132829
0.0459615 0.218844 -0.132828
0.0454737 0.215347 -0.133847
0.0459588 0.218849 -0.133828
0.045461 0.218347 -0.133829
0.0459688 0.215855 -0.134845
0.045471 0.215353 -0.134847
0.0454575 0.21885 -0.134326
0.045454 0.219353 -0.134823
0.0459519 0.219855 -0.134822
0.0459661 0.215861 -0.135845
0.0454683 0.215359 -0.135847
0.0454506 0.219856 -0.13532
0.0454471 0.220359 -0.135818
0.045945 0.220861 -0.135816
0.045469 0.214862 -0.13635
0.0454698 0.214365 -0.136853
0.0459677 0.214867 -0.136851
0.0459634 0.215867 -0.136845
0.0454436 0.220862 -0.136315
0.0454402 0.221365 -0.136812
0.045938 0.221867 -0.13681
0.045965 0.214873 -0.137851
0.0454671 0.214371 -0.137853
0.0459608 0.215873 -0.137845
0.0454367 0.221868 -0.137309
0.0454332 0.222371 -0.137806
0.0459623 0.214879 -0.138851
0.0454644 0.214377 -0.138853
0.0459284 0.222879 -0.138804
0.0454305 0.222376 -0.138806
0.0459596 0.214885 -0.139851
0.0454617 0.214382 -0.139853
0.0459257 0.222884 -0.139804
0.0454279 0.222382 -0.139806
0.0459569 0.21489 -0.140851
0.045459 0.214388 -0.140852
0.045923 0.22289 -0.140804
0.0454252 0.222388 -0.140806
0.0459542 0.214896 -0.141851
0.0454563 0.214394 -0.141852
0.04595 0.215896 -0.141845
0.0459203 0.222896 -0.141804
0.0454225 0.222394 -0.141806
0.0459515 0.214902 -0.142851
0.0454536 0.2144 -0.142852
0.0459176 0.222902 -0.142804
0.0454198 0.2224 -0.142806
0.0454502 0.214903 -0.14335
0.0454467 0.215406 -0.143847
0.0459446 0.215908 -0.143845
0.0454213 0.221406 -0.143812
0.0454205 0.221903 -0.143309
0.0459192 0.221908 -0.14381
0.0454432 0.215909 -0.144344
0.045439 0.216909 -0.144338
0.0454355 0.217411 -0.144835
0.0459334 0.217914 -0.144833
0.0459292 0.218914 -0.144827
0.0454228 0.220411 -0.144817
0.0454221 0.220908 -0.144314
0.0459207 0.220914 -0.144816
0.0454321 0.217914 -0.145332
0.0454278 0.218914 -0.145326
0.0454236 0.219914 -0.14532
0.0444756 0.215834 -0.132341
0.0444764 0.215337 -0.132844
0.0444714 0.216834 -0.132335
0.0444671 0.217834 -0.13233
0.0444637 0.218337 -0.132827
0.0444771 0.21484 -0.133347
0.0444779 0.214343 -0.13385
0.0449758 0.214845 -0.133848
0.044461 0.218343 -0.133827
0.0449731 0.214851 -0.134848
0.0444752 0.214349 -0.13485
0.0449561 0.218851 -0.134825
0.0444583 0.218349 -0.134827
0.0449704 0.214857 -0.135848
0.0444725 0.214355 -0.13585
0.0444548 0.218852 -0.135324
0.0444506 0.219852 -0.135318
0.0444471 0.220355 -0.135815
0.0444733 0.213858 -0.136353
0.0444741 0.213361 -0.136856
0.0449719 0.213863 -0.136854
0.0449423 0.220863 -0.136813
0.0444444 0.220361 -0.136815
0.0449692 0.213869 -0.137854
0.0444714 0.213367 -0.137856
0.044441 0.220863 -0.137312
0.0444375 0.221366 -0.137809
0.0449354 0.221868 -0.137807
0.0449665 0.213874 -0.138854
0.0444687 0.213372 -0.138856
0.044434 0.221869 -0.138306
0.0444306 0.222372 -0.138803
0.0449638 0.21388 -0.139854
0.044466 0.213378 -0.139856
0.0444321 0.221378 -0.139809
0.0444313 0.221875 -0.139306
0.04493 0.22188 -0.139807
0.0449612 0.213886 -0.140854
0.0444633 0.213384 -0.140856
0.0449273 0.221886 -0.140807
0.0444294 0.221384 -0.140809
0.0449585 0.213892 -0.141854
0.0444606 0.21339 -0.141856
0.0449246 0.221892 -0.141807
0.0444267 0.22139 -0.141809
0.0449558 0.213898 -0.142854
0.0444579 0.213396 -0.142856
0.0449219 0.221898 -0.142807
0.044424 0.221395 -0.142809
0.0444544 0.213899 -0.143353
0.044451 0.214401 -0.14385
0.0449488 0.214904 -0.143848
0.0444213 0.221401 -0.143809
0.0444475 0.214904 -0.144347
0.0444433 0.215904 -0.144341
0.044439 0.216904 -0.144335
0.0444356 0.217407 -0.144832
0.0444271 0.219407 -0.144821
0.0444263 0.219904 -0.144318
0.044925 0.219909 -0.144819
0.0444221 0.220904 -0.144312
0.0444321 0.21791 -0.145329
0.0444279 0.21891 -0.145323
0.0434756 0.21583 -0.132339
0.0434764 0.215333 -0.132841
0.0434721 0.216333 -0.132836
0.04397 0.216835 -0.132834
0.0439658 0.217835 -0.132828
0.0434814 0.213836 -0.13335
0.0434821 0.213339 -0.133853
0.04398 0.213841 -0.133852
0.0434771 0.214836 -0.133344
0.0439673 0.216841 -0.133834
0.0434694 0.216339 -0.133836
0.0439631 0.217841 -0.133828
0.0434829 0.212842 -0.134356
0.0434837 0.212345 -0.134859
0.0439816 0.212847 -0.134857
0.0439773 0.213847 -0.134852
0.043466 0.216842 -0.134333
0.0434617 0.217842 -0.134327
0.0434583 0.218345 -0.134824
0.0439789 0.212853 -0.135857
0.043481 0.212351 -0.135859
0.0439746 0.213853 -0.135852
0.0434548 0.218848 -0.135321
0.0434514 0.21935 -0.135818
0.0439492 0.219853 -0.135816
0.0439762 0.212859 -0.136857
0.0434783 0.212356 -0.136859
0.0439465 0.219858 -0.136816
0.0434487 0.219356 -0.136818
0.0439735 0.212864 -0.137857
0.0434756 0.212362 -0.137859
0.0434452 0.219859 -0.137315
0.0434417 0.220362 -0.137812
0.0439396 0.220864 -0.137811
0.0439708 0.21287 -0.138857
0.0434729 0.212368 -0.138859
0.0439369 0.22087 -0.138811
0.043439 0.220368 -0.138812
0.0439327 0.22187 -0.138805
0.0439681 0.212876 -0.139857
0.0434702 0.212374 -0.139859
0.0439342 0.220876 -0.139811
0.0434363 0.220374 -0.139812
0.0439654 0.212882 -0.140857
0.0434675 0.21238 -0.140859
0.0439315 0.220882 -0.140811
0.0434336 0.22038 -0.140812
0.0439627 0.212888 -0.141857
0.0434648 0.212386 -0.141859
0.0439288 0.220888 -0.141811
0.043431 0.220385 -0.141812
0.04396 0.212894 -0.142857
0.0434621 0.212391 -0.142859
0.0439261 0.220893 -0.14281
0.0434283 0.220391 -0.142812
0.0434587 0.212894 -0.143356
0.0434552 0.213397 -0.143853
0.0439531 0.213899 -0.143851
0.0439234 0.220899 -0.14381
0.0434256 0.220397 -0.143812
0.0434517 0.2139 -0.14435
0.0434475 0.2149 -0.144344
0.043444 0.215403 -0.144841
0.0439419 0.215905 -0.14484
0.0439377 0.216905 -0.144834
0.0434271 0.219403 -0.144818
0.0434263 0.2199 -0.144315
0.0434406 0.215906 -0.145338
0.0434363 0.216906 -0.145332
0.0434321 0.217906 -0.145327
0.0434279 0.218906 -0.145321
0.0424841 0.213826 -0.132348
0.0424849 0.213329 -0.13285
0.0429827 0.213831 -0.132849
0.0429785 0.214831 -0.132843
0.0424799 0.214826 -0.132342
0.0424756 0.215826 -0.132336
0.0424722 0.216329 -0.132833
0.0424856 0.212832 -0.133353
0.0424864 0.212335 -0.133856
0.0429843 0.212837 -0.133855
0.0424695 0.216335 -0.133833
0.0424872 0.211838 -0.134359
0.0424879 0.211341 -0.134862
0.0429858 0.211843 -0.134861
0.042466 0.216838 -0.13433
0.0424625 0.21734 -0.134827
0.0429604 0.217843 -0.134826
0.0429831 0.211849 -0.135861
0.0424852 0.211346 -0.135862
0.0424591 0.217843 -0.135324
0.0424556 0.218346 -0.135821
0.0429535 0.218848 -0.13582
0.0429804 0.211854 -0.136861
0.0424825 0.211352 -0.136862
0.0429508 0.218854 -0.13682
0.0424529 0.218352 -0.136821
0.0424833 0.210855 -0.137365
0.0424841 0.210358 -0.137868
0.042982 0.21086 -0.137866
0.0429777 0.21186 -0.13786
0.0424494 0.218855 -0.137318
0.042446 0.219358 -0.137815
0.0429439 0.21986 -0.137814
0.0429793 0.210866 -0.138866
0.0424814 0.210364 -0.138868
0.042975 0.211866 -0.13886
0.0429412 0.219866 -0.138814
0.0424433 0.219364 -0.138815
0.0429766 0.210872 -0.139866
0.0424787 0.21037 -0.139868
0.0429723 0.211872 -0.13986
0.0429385 0.219872 -0.139814
0.0424406 0.21937 -0.139815
0.0424752 0.210873 -0.140365
0.0424718 0.211376 -0.140862
0.0429696 0.211878 -0.14086
0.0429358 0.219877 -0.140814
0.0424379 0.219375 -0.140815
0.0429669 0.211884 -0.14186
0.0424691 0.211381 -0.141862
0.0429331 0.219883 -0.141814
0.0424352 0.219381 -0.141815
0.0429643 0.211889 -0.14286
0.0424664 0.211387 -0.142862
0.0429304 0.219889 -0.142814
0.0424325 0.219387 -0.142815
0.0424629 0.21189 -0.143359
0.0424594 0.212393 -0.143856
0.0429573 0.212895 -0.143855
0.0429277 0.219895 -0.143814
0.0424298 0.219393 -0.143815
0.042456 0.212896 -0.144353
0.0424518 0.213896 -0.144347
0.0424483 0.214399 -0.144844
0.0429462 0.214901 -0.144843
0.0424314 0.218399 -0.144821
0.0424306 0.218896 -0.144318
0.0429292 0.218901 -0.144819
0.0424448 0.214902 -0.145341
0.0424406 0.215902 -0.145336
0.0424364 0.216902 -0.14533
0.0424321 0.217902 -0.145324
0.0414841 0.213822 -0.132345
0.0414849 0.213325 -0.132848
0.0414806 0.214325 -0.132842
0.0419785 0.214827 -0.13284
0.0419743 0.215827 -0.132835
0.0414899 0.211828 -0.133357
0.0414906 0.211331 -0.133859
0.0419885 0.211833 -0.133858
0.0414856 0.212828 -0.133351
0.0414772 0.214828 -0.133339
0.0419716 0.215833 -0.133835
0.0414737 0.21533 -0.133836
0.0414914 0.210833 -0.134362
0.0414922 0.210336 -0.134865
0.0419901 0.210839 -0.134864
0.0414702 0.215833 -0.134333
0.0414668 0.216336 -0.13483
0.0419647 0.216838 -0.134829
0.0419874 0.210844 -0.135864
0.0414895 0.210342 -0.135865
0.041962 0.216844 -0.135829
0.0414641 0.216342 -0.13583
0.0419577 0.217844 -0.135823
0.0419847 0.21085 -0.136864
0.0414868 0.210348 -0.136865
0.0414606 0.216845 -0.136327
0.041955 0.21785 -0.136823
0.0414572 0.217348 -0.136824
0.0414876 0.209851 -0.137368
0.0414883 0.209354 -0.137871
0.0419862 0.209856 -0.137869
0.0414537 0.217851 -0.137321
0.0414502 0.218354 -0.137819
0.0419481 0.218856 -0.137817
0.0419835 0.209862 -0.138869
0.0414856 0.20936 -0.138871
0.0419454 0.218862 -0.138817
0.0414475 0.21836 -0.138818
0.0419808 0.209868 -0.139869
0.0414829 0.209366 -0.139871
0.0419427 0.218867 -0.139817
0.0414448 0.218365 -0.139818
0.0419781 0.209874 -0.140869
0.0414802 0.209371 -0.140871
0.0419739 0.210873 -0.140864
0.04194 0.218873 -0.140817
0.0414421 0.218371 -0.140818
0.0414768 0.209874 -0.141368
0.0414733 0.210377 -0.141865
0.0419712 0.210879 -0.141864
0.0414387 0.218874 -0.141316
0.0414352 0.219377 -0.141813
0.0419685 0.210885 -0.142864
0.0414706 0.210383 -0.142865
0.0414325 0.219383 -0.142813
0.0414672 0.210886 -0.143362
0.0414637 0.211389 -0.143859
0.0419616 0.211891 -0.143858
0.0414383 0.217389 -0.143824
0.0414375 0.217886 -0.143321
0.0419362 0.217891 -0.143823
0.0414333 0.218886 -0.143315
0.0419319 0.218891 -0.143817
0.0414602 0.211892 -0.144356
0.041456 0.212892 -0.144351
0.0414518 0.213892 -0.144345
0.0414483 0.214395 -0.144842
0.0419335 0.217897 -0.144823
0.0414356 0.217395 -0.144824
0.0414448 0.214897 -0.145339
0.0414406 0.215897 -0.145333
0.0414364 0.216897 -0.145327
0.0404841 0.213817 -0.132342
0.0404849 0.21332 -0.132845
0.0404806 0.21432 -0.132839
0.0404941 0.210823 -0.13336
0.0404949 0.210326 -0.133863
0.0409928 0.210828 -0.133861
0.0404899 0.211823 -0.133354
0.0404857 0.212823 -0.133348
0.0409758 0.214828 -0.133838
0.040478 0.214326 -0.133839
0.0404957 0.209829 -0.134366
0.0404964 0.209332 -0.134868
0.0409943 0.209834 -0.134867
0.0404745 0.214829 -0.134336
0.040471 0.215332 -0.134833
0.0409689 0.215834 -0.134832
0.0409916 0.20984 -0.135867
0.0404937 0.209338 -0.135868
0.0409662 0.21584 -0.135832
0.0404683 0.215338 -0.135833
0.0409889 0.209846 -0.136867
0.040491 0.209344 -0.136868
0.0404649 0.215841 -0.13633
0.0404614 0.216344 -0.136828
0.0409593 0.216846 -0.136826
0.0404883 0.20935 -0.137868
0.0404579 0.216847 -0.137325
0.0404545 0.217349 -0.137822
0.0409523 0.217852 -0.13782
0.0404856 0.209355 -0.138868
0.0409497 0.217857 -0.13882
0.0404518 0.217355 -0.138822
0.040483 0.209361 -0.139868
0.0404483 0.217858 -0.139319
0.0404448 0.218361 -0.139816
0.0404803 0.209367 -0.140868
0.0404422 0.218367 -0.140816
0.0409754 0.209875 -0.141867
0.0404776 0.209373 -0.141868
0.0409373 0.218875 -0.141814
0.0404395 0.218373 -0.141816
0.0409727 0.209881 -0.142867
0.0404749 0.209379 -0.142868
0.040441 0.217379 -0.142822
0.0404402 0.217876 -0.142319
0.0409389 0.217881 -0.14282
0.0409346 0.218881 -0.142814
0.0404714 0.209882 -0.143365
0.0404679 0.210385 -0.143862
0.0409658 0.210887 -0.143861
0.0404383 0.217384 -0.143822
0.0404645 0.210888 -0.14436
0.040461 0.21139 -0.144857
0.0409589 0.211893 -0.144855
0.0409547 0.212892 -0.144849
0.0409504 0.213892 -0.144843
0.0404398 0.21639 -0.144827
0.0404391 0.216887 -0.144324
0.0409377 0.216892 -0.144826
0.0404575 0.211893 -0.145354
0.0404533 0.212893 -0.145348
0.0404491 0.213893 -0.145342
0.0404448 0.214893 -0.145336
0.0404406 0.215893 -0.14533
0.0399828 0.213818 -0.132841
0.0394941 0.210819 -0.133357
0.0394949 0.210322 -0.13386
0.0394899 0.211819 -0.133351
0.0394857 0.212819 -0.133345
0.0399801 0.213824 -0.133841
0.0394822 0.213322 -0.133842
0.0394957 0.209825 -0.134363
0.0394964 0.209328 -0.134866
0.0394787 0.213825 -0.13434
0.0394753 0.214328 -0.134837
0.0399731 0.21483 -0.134835
0.0394972 0.208831 -0.135369
0.039498 0.208334 -0.135872
0.0399959 0.208836 -0.13587
0.0394718 0.214831 -0.135334
0.0394683 0.215334 -0.135831
0.0399932 0.208842 -0.13687
0.0394953 0.20834 -0.136872
0.0399635 0.215842 -0.136829
0.0394656 0.215339 -0.136831
0.0399905 0.208848 -0.13787
0.0394926 0.208345 -0.137872
0.0394622 0.215842 -0.137328
0.0394587 0.216345 -0.137825
0.0399566 0.216847 -0.137823
0.0399878 0.208853 -0.13887
0.0394899 0.208351 -0.138872
0.0394553 0.216848 -0.138322
0.0394518 0.217351 -0.138819
0.0399851 0.208859 -0.13987
0.0394872 0.208357 -0.139872
0.039947 0.217859 -0.139817
0.0394491 0.217357 -0.139819
0.0399824 0.208865 -0.14087
0.0394845 0.208363 -0.140872
0.0399443 0.217865 -0.140817
0.0394464 0.217363 -0.140819
0.0399797 0.208871 -0.14187
0.0394818 0.208369 -0.141872
0.0399416 0.217871 -0.141817
0.0394437 0.217369 -0.141819
0.039977 0.208877 -0.14287
0.0394791 0.208375 -0.142871
0.039441 0.217374 -0.142819
0.0394757 0.208877 -0.143369
0.0394722 0.20938 -0.143866
0.0399701 0.209882 -0.143864
0.0394426 0.21638 -0.143825
0.0394418 0.216877 -0.143322
0.0399404 0.216882 -0.143823
0.0394687 0.209883 -0.144363
0.0394653 0.210386 -0.14486
0.0399631 0.210888 -0.144858
0.0394399 0.216386 -0.144825
0.0394618 0.210889 -0.145357
0.0394576 0.211889 -0.145351
0.0394533 0.212889 -0.145345
0.0394499 0.213392 -0.145842
0.0399477 0.213894 -0.145841
0.0394456 0.214392 -0.145836
0.0394449 0.214889 -0.145333
0.0394406 0.215889 -0.145328
0.0394464 0.213895 -0.146339
0.0384941 0.210815 -0.133354
0.0384949 0.210318 -0.133857
0.0384899 0.211815 -0.133349
0.0384864 0.212318 -0.133846
0.0389843 0.21282 -0.133844
0.0384999 0.208821 -0.134366
0.0385007 0.208324 -0.134869
0.0389986 0.208826 -0.134867
0.0384957 0.209821 -0.13436
0.038483 0.212821 -0.134343
0.0384795 0.213324 -0.13484
0.0389774 0.213826 -0.134838
0.038498 0.20833 -0.135869
0.0384761 0.213826 -0.135337
0.0384726 0.214329 -0.135834
0.0389705 0.214831 -0.135832
0.0384988 0.207832 -0.136372
0.0384995 0.207335 -0.136875
0.0389974 0.207837 -0.136873
0.0384691 0.214832 -0.136331
0.0384657 0.215335 -0.136828
0.0389947 0.207843 -0.137873
0.0384968 0.207341 -0.137875
0.0384622 0.215838 -0.137325
0.0384587 0.216341 -0.137822
0.038992 0.207849 -0.138873
0.0384941 0.207347 -0.138875
0.0389539 0.216849 -0.138821
0.038456 0.216347 -0.138822
0.0389893 0.207855 -0.139873
0.0384914 0.207353 -0.139875
0.0384526 0.21685 -0.139319
0.0384491 0.217353 -0.139816
0.0389866 0.207861 -0.140873
0.0384888 0.207359 -0.140875
0.0384464 0.217358 -0.140816
0.0389839 0.207867 -0.141873
0.0384861 0.207365 -0.141875
0.0384437 0.217364 -0.141816
0.0389812 0.207872 -0.142873
0.0384834 0.20737 -0.142875
0.038441 0.21737 -0.142816
0.0384799 0.207873 -0.143372
0.0384764 0.208376 -0.143869
0.0389743 0.208878 -0.143867
0.0384426 0.216376 -0.143822
0.0384418 0.216873 -0.143319
0.038473 0.208879 -0.144366
0.0384695 0.209382 -0.144863
0.0389674 0.209884 -0.144861
0.0384441 0.215382 -0.144828
0.0384433 0.215879 -0.144325
0.038942 0.215884 -0.144826
0.038466 0.209885 -0.14536
0.0384618 0.210885 -0.145354
0.0384576 0.211885 -0.145348
0.0384541 0.212388 -0.145845
0.038952 0.21289 -0.145844
0.0384456 0.214388 -0.145834
0.0384449 0.214885 -0.145331
0.0384506 0.212891 -0.146342
0.0384464 0.213891 -0.146337
0.0379928 0.210816 -0.133853
0.0379886 0.211816 -0.133847
0.0374999 0.208817 -0.134363
0.0375007 0.208319 -0.134866
0.0374957 0.209816 -0.134358
0.0374915 0.210816 -0.134352
0.0374872 0.211816 -0.134346
0.0374838 0.212319 -0.134843
0.0379816 0.212821 -0.134841
0.0375015 0.207822 -0.135369
0.0375022 0.207325 -0.135872
0.0380001 0.207827 -0.135871
0.0374803 0.212822 -0.13534
0.0374768 0.213325 -0.135837
0.0379747 0.213827 -0.135835
0.037503 0.206828 -0.136375
0.0375038 0.206331 -0.136878
0.0380017 0.206833 -0.136876
0.0374734 0.213828 -0.136334
0.0374699 0.214331 -0.136831
0.0379678 0.214833 -0.13683
0.037999 0.206839 -0.137876
0.0375011 0.206337 -0.137878
0.0374664 0.214834 -0.137328
0.037463 0.215337 -0.137825
0.0379609 0.215839 -0.137824
0.0379963 0.206845 -0.138876
0.0374984 0.206343 -0.138878
0.0374595 0.21584 -0.138322
0.037456 0.216343 -0.138819
0.0379936 0.206851 -0.139876
0.0374957 0.206349 -0.139878
0.0379512 0.21685 -0.139818
0.0374534 0.216348 -0.139819
0.0379909 0.206857 -0.140876
0.037493 0.206354 -0.140878