<VTKFile type="UnstructuredGrid" version="0.1" byte_order="BigEndian">
  <UnstructuredGrid>
    <Piece NumberOfPoints="23102" NumberOfCells="46208">
      <PointData>
        <DataArray type="Float64" Name="position" NumberOfComponents="3" format="ascii">
0.0526901 0.225492 -0.135248
0.0526959 0.224996 -0.135752
0.0531891 0.225503 -0.135748
0.0526824 0.225996 -0.135743
0.0531872 0.225511 -0.136748
0.052694 0.225004 -0.136752
0.0526805 0.226004 -0.136743
0.0526998 0.224509 -0.137256
0.0527057 0.224013 -0.13776
0.0531988 0.224519 -0.137756
0.0531853 0.225519 -0.137748
0.0526786 0.226012 -0.137743
0.0531969 0.224528 -0.138756
0.0527037 0.224021 -0.13876
0.0531834 0.225527 -0.138748
0.0526767 0.226021 -0.138743
0.053195 0.224536 -0.139756
0.0527018 0.224029 -0.13976
0.0531815 0.225536 -0.139748
0.0526747 0.226029 -0.139743
0.0526941 0.224533 -0.140255
0.0526806 0.225533 -0.140247
0.0517173 0.223479 -0.135262
0.0517231 0.222983 -0.135766
0.0522163 0.22349 -0.135763
0.0522028 0.22449 -0.135755
0.0517038 0.224479 -0.135254
0.0516902 0.225479 -0.135246
0.0516825 0.225983 -0.135742
0.0522144 0.223498 -0.136763
0.0517212 0.222991 -0.136766
0.0522008 0.224498 -0.136755
0.0516806 0.225991 -0.136742
0.0522125 0.223506 -0.137763
0.0517193 0.222999 -0.137766
0.0516787 0.225999 -0.137742
0.0522106 0.223514 -0.138763
0.0517174 0.223007 -0.138766
0.0516767 0.226007 -0.138742
0.0522087 0.223522 -0.139763
0.0517155 0.223016 -0.139766
0.0516748 0.226015 -0.139741
0.0517077 0.22352 -0.140262
0.0517 0.224024 -0.140758
0.0521932 0.22453 -0.140755
0.0521796 0.22553 -0.140746
0.0516729 0.226023 -0.140741
0.0521913 0.224538 -0.141755
0.0516981 0.224032 -0.141758
0.0521777 0.225538 -0.141746
0.051671 0.226031 -0.141741
0.0521894 0.224547 -0.142755
0.0516962 0.22404 -0.142758
0.0516768 0.225536 -0.142245
0.0516826 0.22504 -0.14275
0.0516885 0.224544 -0.143254
0.050731 0.222465 -0.135268
0.0507368 0.22197 -0.135772
0.05123 0.222476 -0.135769
0.0507174 0.223465 -0.13526
0.0507039 0.224465 -0.135252
0.0506903 0.225465 -0.135244
0.0506826 0.225969 -0.13574
0.051228 0.222484 -0.136769
0.0507349 0.221978 -0.136772
0.0506807 0.225977 -0.13674
0.0512261 0.222493 -0.137769
0.0507329 0.221986 -0.137772
0.0506788 0.225985 -0.13774
0.0512242 0.222501 -0.138769
0.050731 0.221994 -0.138772
0.0506768 0.225993 -0.13874
0.0512223 0.222509 -0.139769
0.0507291 0.222002 -0.139772
0.0506749 0.226002 -0.13974
0.0507214 0.222506 -0.140268
0.0507137 0.22301 -0.140764
0.0512068 0.223517 -0.140761
0.050673 0.22601 -0.14074
0.0512049 0.223525 -0.141761
0.0507117 0.223018 -0.141764
0.0506711 0.226018 -0.14174
0.050704 0.223522 -0.14226
0.0506963 0.224026 -0.142756
0.0511759 0.225533 -0.142745
0.0506692 0.226026 -0.14274
0.0506885 0.22453 -0.143252
0.050675 0.22553 -0.143244
0.0497311 0.222452 -0.135267
0.0497369 0.221956 -0.135771
0.0497175 0.223452 -0.135258
0.049704 0.224452 -0.13525
0.0496962 0.224956 -0.135746
0.0501894 0.225462 -0.135743
0.049735 0.221964 -0.136771
0.0496885 0.22546 -0.136242
0.0496808 0.225964 -0.136738
0.0497408 0.221468 -0.137275
0.0497466 0.220972 -0.137779
0.0502398 0.221479 -0.137776
0.0496788 0.225972 -0.137738
0.0497389 0.221476 -0.138275
0.0497311 0.22198 -0.138771
0.0496769 0.22598 -0.138738
0.0497369 0.221485 -0.139275
0.0497428 0.220989 -0.139779
0.0502359 0.221495 -0.139775
0.049675 0.225988 -0.139738
0.049735 0.221493 -0.140275
0.0497273 0.221997 -0.14077
0.0502205 0.222503 -0.140767
0.0496731 0.225996 -0.140738
0.0502186 0.222512 -0.141767
0.0497254 0.222005 -0.14177
0.0496712 0.226004 -0.141738
0.0497177 0.222509 -0.142266
0.0497099 0.223013 -0.142762
0.0502031 0.22352 -0.142759
0.0496693 0.226012 -0.142738
0.0497022 0.223517 -0.143258
0.0496945 0.224021 -0.143754
0.0501876 0.224528 -0.143751
0.0501741 0.225527 -0.143743
0.0496674 0.226021 -0.143738
0.0496867 0.224525 -0.14425
0.0496732 0.225525 -0.144242
0.0487331 0.22243 -0.134265
0.0487389 0.221934 -0.134769
0.0492321 0.222441 -0.134766
0.0492185 0.223441 -0.134758
0.0487195 0.22343 -0.134257
0.0487118 0.223934 -0.134753
0.0487447 0.221438 -0.135273
0.0487505 0.220943 -0.135777
0.0492437 0.221449 -0.135774
0.048704 0.224438 -0.135248
0.0486963 0.224942 -0.135744
0.0492418 0.221457 -0.136774
0.0487486 0.220951 -0.136777
0.0486886 0.225446 -0.13624
0.0486809 0.22595 -0.136736
0.0487467 0.220959 -0.137777
0.0486789 0.225958 -0.137736
0.0492379 0.221474 -0.138774
0.0487448 0.220967 -0.138777
0.048677 0.225966 -0.138736
0.0487429 0.220975 -0.139777
0.0486751 0.225974 -0.139736
0.0492341 0.22149 -0.140774
0.0487409 0.220983 -0.140777
0.0486732 0.225983 -0.140736
0.0492322 0.221498 -0.141774
0.048739 0.220991 -0.141777
0.0486713 0.225991 -0.141736
0.0492303 0.221506 -0.142774
0.0487371 0.220999 -0.142777
0.0492167 0.222506 -0.142765
0.0486694 0.225999 -0.142736
0.0487294 0.221503 -0.143273
0.0487158 0.222503 -0.143264
0.0487081 0.223007 -0.14376
0.0492013 0.223514 -0.143757
0.0486675 0.226007 -0.143736
0.0487004 0.223511 -0.144256
0.0486868 0.224511 -0.144248
0.0486733 0.225511 -0.14424
0.0477486 0.221409 -0.133271
0.0477544 0.220913 -0.133775
0.0482476 0.22142 -0.133772
0.0482341 0.222419 -0.133764
0.0477351 0.222409 -0.133263
0.0477273 0.222913 -0.133759
0.0482457 0.221428 -0.134772
0.0477525 0.220921 -0.134775
0.0477196 0.223417 -0.134255
0.0477119 0.223921 -0.134751
0.0477719 0.219425 -0.135287
0.0477777 0.218929 -0.135791
0.0482709 0.219436 -0.135788
0.0482573 0.220436 -0.13578
0.0477583 0.220425 -0.135279
0.0477041 0.224425 -0.135247
0.0476964 0.224929 -0.135743
0.04777 0.219433 -0.136287
0.0477622 0.219937 -0.136783
0.0482554 0.220444 -0.13678
0.0481877 0.225443 -0.136739
0.0476945 0.224937 -0.136743
0.0482535 0.220452 -0.13778
0.0477603 0.219945 -0.137783
0.0481858 0.225452 -0.137739
0.0476926 0.224945 -0.137742
0.0482516 0.22046 -0.13878
0.0477584 0.219954 -0.138783
0.0476849 0.225449 -0.138238
0.0476771 0.225953 -0.138734
0.0477642 0.219458 -0.139287
0.04777 0.218962 -0.139791
0.0482632 0.219469 -0.139788
0.0482497 0.220468 -0.13978
0.0476752 0.225961 -0.139734
0.0477623 0.219466 -0.140287
0.0477546 0.21997 -0.140783
0.0482478 0.220477 -0.14078
0.0476733 0.225969 -0.140734
0.0482458 0.220485 -0.14178
0.0477527 0.219978 -0.141783
0.0476714 0.225977 -0.141734
0.0482439 0.220493 -0.14278
0.0477508 0.219986 -0.142783
0.0476695 0.225985 -0.142734
0.047743 0.22049 -0.143279
0.0477295 0.22149 -0.143271
0.0477217 0.221994 -0.143767
0.0482149 0.222501 -0.143764
0.0476676 0.225993 -0.143734
0.047714 0.222498 -0.144263
0.0477005 0.223498 -0.144254
0.0476869 0.224498 -0.144246
0.0476734 0.225498 -0.144238
0.0467623 0.220395 -0.133278
0.0467681 0.219899 -0.133782
0.0472613 0.220406 -0.133778
0.0467487 0.221395 -0.133269
0.0467352 0.222395 -0.133261
0.0467274 0.222899 -0.133757
0.0467739 0.219403 -0.134286
0.0467797 0.218908 -0.13479
0.0472729 0.219414 -0.134787
0.0472593 0.220414 -0.134778
0.0467197 0.223403 -0.134253
0.046712 0.223907 -0.134749
0.0467778 0.218916 -0.13579
0.0467042 0.224411 -0.135245
0.0466965 0.224915 -0.135741
0.0472691 0.219431 -0.136786
0.0467759 0.218924 -0.13679
0.0466946 0.224923 -0.136741
0.0472671 0.219439 -0.137786
0.046774 0.218932 -0.13779
0.0466927 0.224931 -0.137741
0.0472652 0.219447 -0.138786
0.0467721 0.21894 -0.13879
0.0471839 0.225446 -0.138737
0.0466908 0.224939 -0.138741
0.0467701 0.218948 -0.13979
0.046683 0.225443 -0.139237
0.0466753 0.225947 -0.139732
0.0472614 0.219463 -0.140786
0.0467682 0.218956 -0.140789
0.0466734 0.225955 -0.140732
0.0472595 0.219471 -0.141786
0.0467663 0.218964 -0.141789
0.0466715 0.225964 -0.141732
0.0472576 0.219479 -0.142786
0.0467644 0.218973 -0.142789
0.0466696 0.225972 -0.142732
0.0467567 0.219477 -0.143285
0.0467431 0.220476 -0.143277
0.0467354 0.22098 -0.143773
0.0472286 0.221487 -0.14377
0.0466812 0.22498 -0.14374
0.0466754 0.225476 -0.143236
0.0471744 0.225487 -0.143737
0.0467277 0.221484 -0.144269
0.0467141 0.222484 -0.144261
0.0467006 0.223484 -0.144253
0.046687 0.224484 -0.144245
0.0457778 0.219374 -0.132284
0.0457836 0.218878 -0.132788
0.0462768 0.219385 -0.132785
0.0462633 0.220384 -0.132777
0.0457643 0.220374 -0.132276
0.0462497 0.221384 -0.132768
0.0457507 0.221373 -0.132268
0.045743 0.221877 -0.132764
0.0462749 0.219393 -0.133785
0.0457817 0.218886 -0.133788
0.0457353 0.222381 -0.133259
0.0457275 0.222885 -0.133755
0.0457798 0.218894 -0.134788
0.0462188 0.2234 -0.134752
0.0457256 0.222894 -0.134755
0.0457856 0.218398 -0.135292
0.0457914 0.217902 -0.135796
0.0462846 0.218409 -0.135793
0.0457179 0.223398 -0.135251
0.0457101 0.223902 -0.135747
0.0462033 0.224408 -0.135744
0.0462827 0.218417 -0.136793
0.0457895 0.21791 -0.136796
0.0457024 0.224406 -0.136243
0.0456947 0.22491 -0.136739
0.0462808 0.218425 -0.137793
0.0457876 0.217919 -0.137796
0.0456928 0.224918 -0.137739
0.0462789 0.218433 -0.138793
0.0457857 0.217927 -0.138796
0.0456909 0.224926 -0.138739
0.046277 0.218442 -0.139793
0.0457838 0.217935 -0.139796
0.0461821 0.225441 -0.139736
0.0456889 0.224934 -0.139739
0.046275 0.21845 -0.140793
0.0457819 0.217943 -0.140796
0.0461802 0.225449 -0.140736
0.045687 0.224942 -0.140739
0.0462731 0.218458 -0.141793
0.04578 0.217951 -0.141796
0.0461783 0.225457 -0.141736
0.0456851 0.22495 -0.141739
0.0462712 0.218466 -0.142793
0.045778 0.217959 -0.142796
0.0461764 0.225465 -0.142736
0.0456832 0.224958 -0.142739
0.0457703 0.218463 -0.143292
0.0457568 0.219463 -0.143284
0.045749 0.219967 -0.143779
0.0462422 0.220474 -0.143776
0.0456813 0.224966 -0.143739
0.0457413 0.220471 -0.144275
0.0457278 0.221471 -0.144267
0.04572 0.221975 -0.144763
0.0462132 0.222482 -0.14476
0.0461996 0.223482 -0.144752
0.0456929 0.223975 -0.144747
0.0456871 0.224471 -0.144243
0.0457123 0.222479 -0.145259
0.0456987 0.223479 -0.145251
0.0447915 0.21836 -0.13229
0.0447973 0.217864 -0.132794
0.0452905 0.218371 -0.132791
0.0447779 0.21936 -0.132282
0.0447644 0.22036 -0.132274
0.0447508 0.22136 -0.132266
0.0447431 0.221864 -0.132762
0.0452885 0.218379 -0.133791
0.0447954 0.217872 -0.133794
0.0452343 0.222379 -0.133758
0.0447412 0.221872 -0.133762
0.0452866 0.218387 -0.134791
0.0447934 0.217881 -0.134794
0.0452324 0.222387 -0.134758
0.0447393 0.22188 -0.134762
0.0447915 0.217889 -0.135794
0.0447315 0.222384 -0.135258
0.0447238 0.222888 -0.135753
0.045217 0.223395 -0.13575
0.0447896 0.217897 -0.136794
0.0447161 0.223392 -0.136249
0.0447083 0.223896 -0.136745
0.0452015 0.224403 -0.136742
0.0447877 0.217905 -0.137794
0.0451996 0.224411 -0.137742
0.0447064 0.223904 -0.137745
0.0447858 0.217913 -0.138794
0.0446987 0.224408 -0.138241
0.0446909 0.224912 -0.138737
0.0447916 0.217417 -0.139298
0.0447974 0.216921 -0.139802
0.0452906 0.217428 -0.139799
0.044689 0.22492 -0.139737
0.0452887 0.217436 -0.140799
0.0447955 0.216929 -0.140802
0.0447007 0.223929 -0.140745
0.0446949 0.224424 -0.140241
0.0451938 0.224435 -0.140742
0.0452868 0.217444 -0.141799
0.0447936 0.216938 -0.141802
0.0451919 0.224443 -0.141742
0.0446988 0.223937 -0.141745
0.0452849 0.217452 -0.142799
0.0447917 0.216946 -0.142802
0.04519 0.224452 -0.142742
0.0446968 0.223945 -0.142745
0.044784 0.21745 -0.143298
0.0447762 0.217954 -0.143794
0.0452694 0.21846 -0.143791
0.0452559 0.21946 -0.143783
0.0451881 0.22446 -0.143742
0.0446949 0.223953 -0.143745
0.0447685 0.218458 -0.14429
0.0447549 0.219458 -0.144282
0.0447414 0.220457 -0.144274
0.0447337 0.220961 -0.144769
0.0452268 0.221468 -0.144766
0.0447066 0.222961 -0.144753
0.0447007 0.223457 -0.144249
0.0451997 0.223468 -0.14475
0.0447259 0.221465 -0.145265
0.0447124 0.222465 -0.145257
0.0437915 0.218347 -0.132288
0.0437974 0.217851 -0.132792
0.043778 0.219347 -0.13228
0.0437703 0.219851 -0.132776
0.0442634 0.220357 -0.132773
0.0442499 0.221357 -0.132765
0.0438167 0.216355 -0.133305
0.0438226 0.215859 -0.133809
0.0443157 0.216366 -0.133806
0.0443022 0.217366 -0.133797
0.0438032 0.217355 -0.133297
0.0442615 0.220365 -0.133773
0.0437684 0.219859 -0.133776
0.044248 0.221365 -0.133765
0.0438148 0.216363 -0.134305
0.0438071 0.216867 -0.134801
0.0443003 0.217374 -0.134797
0.0437606 0.220363 -0.134272
0.0442461 0.221373 -0.134765
0.0437529 0.220867 -0.134768
0.0442984 0.217382 -0.135797
0.0438052 0.216875 -0.135801
0.0437452 0.221371 -0.135264
0.0437374 0.221875 -0.13576
0.0442306 0.222381 -0.135757
0.0442964 0.21739 -0.136797
0.0438033 0.216883 -0.136801
0.0437297 0.222379 -0.136256
0.043722 0.222883 -0.136752
0.0442151 0.223389 -0.136748
0.0442945 0.217398 -0.137797
0.0438013 0.216892 -0.1378
0.0442132 0.223398 -0.137748
0.0437201 0.222891 -0.137752
0.0438072 0.216396 -0.138305
0.043813 0.2159 -0.138809
0.0443062 0.216407 -0.138805
0.0442926 0.217406 -0.138797
0.0437123 0.223395 -0.138247
0.0437046 0.223899 -0.138743
0.0441978 0.224406 -0.13874
0.0443042 0.216415 -0.139805
0.0438111 0.215908 -0.139809
0.0441959 0.224414 -0.13974
0.0437027 0.223907 -0.139743
0.0443023 0.216423 -0.140805
0.0438092 0.215916 -0.140809
0.0437008 0.223915 -0.140743
0.0438014 0.21642 -0.141304
0.0437937 0.216924 -0.1418
0.0436988 0.223923 -0.141743
0.0437995 0.216428 -0.142304
0.0438053 0.215932 -0.142808
0.0442985 0.216439 -0.142805
0.0436969 0.223931 -0.142743
0.0437976 0.216436 -0.143304
0.0437899 0.21694 -0.1438
0.044283 0.217447 -0.143797
0.0437086 0.22294 -0.143751
0.0437028 0.223435 -0.143247
0.0442017 0.223446 -0.143748
0.0437821 0.217444 -0.144296
0.0437686 0.218444 -0.144288
0.043755 0.219444 -0.14428
0.0437473 0.219948 -0.144776
0.0442405 0.220455 -0.144773
0.0437202 0.221948 -0.144759
0.0437144 0.222444 -0.144255
0.0442134 0.222455 -0.144756
0.0437396 0.220452 -0.145272
0.043726 0.221452 -0.145264
0.0428187 0.216333 -0.132303
0.0428246 0.215837 -0.132807
0.0433177 0.216344 -0.132804
0.0433042 0.217344 -0.132796
0.0428052 0.217333 -0.132295
0.0427916 0.218333 -0.132287
0.0427839 0.218837 -0.132783
0.0432771 0.219344 -0.132779
0.0428226 0.215846 -0.133807
0.0432752 0.219352 -0.133779
0.042782 0.218845 -0.133783
0.0433139 0.21636 -0.134804
0.0428207 0.215854 -0.134807
0.0427743 0.219349 -0.134278
0.0427665 0.219853 -0.134774
0.0432597 0.22036 -0.134771
0.043312 0.216369 -0.135804
0.0428188 0.215862 -0.135807
0.0427588 0.220357 -0.13527
0.0427511 0.220861 -0.135766
0.0432443 0.221368 -0.135763
0.0428246 0.215366 -0.136311
0.0428305 0.21487 -0.136815
0.0433236 0.215377 -0.136812
0.0433101 0.216377 -0.136804
0.0427433 0.221365 -0.136262
0.0427356 0.221869 -0.136758
0.0432288 0.222376 -0.136755
0.0433217 0.215385 -0.137812
0.0428285 0.214878 -0.137815
0.0433082 0.216385 -0.137804
0.0427279 0.222373 -0.137254
0.0427201 0.222877 -0.13775
0.0433198 0.215393 -0.138812
0.0428266 0.214886 -0.138815
0.0432114 0.223392 -0.138747
0.0427182 0.222885 -0.13875
0.0433179 0.215401 -0.139812
0.0428247 0.214894 -0.139815
0.0432095 0.2234 -0.139747
0.0427163 0.222893 -0.13975
0.043316 0.215409 -0.140812
0.0428228 0.214903 -0.140815
0.0432076 0.223408 -0.140746
0.0427144 0.222902 -0.14075
0.0433141 0.215417 -0.141812
0.0428209 0.214911 -0.141815
0.0433005 0.216417 -0.141804
0.0432057 0.223416 -0.141746
0.0427125 0.22291 -0.14175
0.0433121 0.215426 -0.142812
0.042819 0.214919 -0.142815
0.0432038 0.223425 -0.142746
0.0427106 0.222918 -0.14275
0.0428112 0.215423 -0.143311
0.0428035 0.215927 -0.143807
0.0432967 0.216434 -0.143803
0.0427222 0.221926 -0.143758
0.0427164 0.222422 -0.143254
0.0432154 0.222433 -0.143755
0.0427958 0.216431 -0.144303
0.0427822 0.217431 -0.144294
0.0427745 0.217935 -0.14479
0.0432677 0.218441 -0.144787
0.0432541 0.219441 -0.144779
0.0427338 0.220934 -0.144766
0.042728 0.22143 -0.144262
0.043227 0.221441 -0.144763
0.0427668 0.218439 -0.145286
0.0427532 0.219439 -0.145278
0.0427397 0.220438 -0.14527
0.0418188 0.21632 -0.132301
0.0418247 0.215824 -0.132805
0.0418053 0.21732 -0.132293
0.0417917 0.21832 -0.132285
0.041784 0.218824 -0.132781
0.0418305 0.215328 -0.133309
0.0418363 0.214832 -0.133813
0.0423295 0.215339 -0.13381
0.0417821 0.218832 -0.133781
0.0423276 0.215347 -0.13481
0.0418344 0.21484 -0.134813
0.0422734 0.219347 -0.134777
0.0417802 0.21884 -0.134781
0.0423256 0.215355 -0.13581
0.0418325 0.214848 -0.135813
0.0417724 0.219344 -0.135277
0.0417589 0.220344 -0.135268
0.0417512 0.220848 -0.135764
0.0418383 0.214353 -0.136317
0.0418441 0.213857 -0.136821
0.0423373 0.214363 -0.136818
0.0422424 0.221363 -0.136761
0.0417493 0.220856 -0.136764
0.0423354 0.214372 -0.137818
0.0418422 0.213865 -0.137821
0.0417415 0.22136 -0.13726
0.0417338 0.221864 -0.137756
0.042227 0.222371 -0.137753
0.0423334 0.21438 -0.138818
0.0418403 0.213873 -0.138821
0.0417261 0.222368 -0.138252
0.0417183 0.222872 -0.138748
0.0423315 0.214388 -0.139818
0.0418384 0.213881 -0.139821
0.04173 0.22188 -0.139756
0.0417241 0.222376 -0.139252
0.0422231 0.222387 -0.139753
0.0423296 0.214396 -0.140818
0.0418364 0.213889 -0.140821
0.0422212 0.222395 -0.140753
0.041728 0.221888 -0.140756
0.0423277 0.214404 -0.141818
0.0418345 0.213897 -0.141821
0.0422193 0.222403 -0.141753
0.0417261 0.221896 -0.141756
0.0423258 0.214412 -0.142818
0.0418326 0.213905 -0.142821
0.0422174 0.222411 -0.142753
0.0417242 0.221904 -0.142756
0.0418249 0.214409 -0.143317
0.0418171 0.214913 -0.143813
0.0423103 0.21542 -0.14381
0.0417223 0.221913 -0.143756
0.0418094 0.215417 -0.144309
0.0417959 0.216417 -0.144301
0.0417823 0.217417 -0.144293
0.0417746 0.217921 -0.144788
0.0417475 0.219921 -0.144772
0.0417417 0.220417 -0.144268
0.0422407 0.220428 -0.144769
0.0417281 0.221417 -0.14426
0.0417669 0.218425 -0.145284
0.0417533 0.219425 -0.145276
0.0408189 0.216306 -0.132299
0.0408247 0.21581 -0.132803
0.0408112 0.21681 -0.132795
0.0413044 0.217317 -0.132792
0.0412908 0.218317 -0.132784
0.0408441 0.214315 -0.133316
0.0408499 0.213819 -0.13382
0.0413431 0.214325 -0.133816
0.0408306 0.215314 -0.133307
0.0413025 0.217325 -0.133792
0.0408093 0.216818 -0.133795
0.0412889 0.218325 -0.133784
0.0408557 0.213323 -0.134324
0.0408616 0.212827 -0.134828
0.0413547 0.213334 -0.134825
0.0413412 0.214334 -0.134816
0.0408016 0.217322 -0.134291
0.040788 0.218322 -0.134283
0.0407803 0.218826 -0.134779
0.0413528 0.213342 -0.135825
0.0408597 0.212835 -0.135828
0.0413393 0.214342 -0.135816
0.0407725 0.21933 -0.135275
0.0407648 0.219834 -0.135771
0.041258 0.220341 -0.135768
0.0413509 0.21335 -0.136825
0.0408577 0.212843 -0.136828
0.0412561 0.220349 -0.136767
0.0407629 0.219842 -0.136771
0.041349 0.213358 -0.137824
0.0408558 0.212851 -0.137828
0.0407552 0.220346 -0.137267
0.0407474 0.22085 -0.137762
0.0412406 0.221357 -0.137759
0.0413471 0.213366 -0.138824
0.0408539 0.212859 -0.138828
0.0412387 0.221365 -0.138759
0.0407455 0.220858 -0.138762
0.0412251 0.222365 -0.138751
0.0413452 0.213374 -0.139824
0.040852 0.212868 -0.139828
0.0412368 0.221373 -0.139759
0.0407436 0.220867 -0.139762
0.0413433 0.213382 -0.140824
0.0408501 0.212876 -0.140828
0.0412349 0.221381 -0.140759
0.0407417 0.220875 -0.140762
0.0413413 0.213391 -0.141824
0.0408482 0.212884 -0.141828
0.041233 0.22139 -0.141759
0.0407398 0.220883 -0.141762
0.0413394 0.213399 -0.142824
0.0408463 0.212892 -0.142827
0.041231 0.221398 -0.142759
0.0407379 0.220891 -0.142762
0.0408385 0.213396 -0.143323
0.0408308 0.2139 -0.143819
0.041324 0.214407 -0.143816
0.0412291 0.221406 -0.143759
0.0407359 0.220899 -0.143762
0.0408231 0.214404 -0.144315
0.0408095 0.215404 -0.144307
0.0408018 0.215908 -0.144803
0.041295 0.216415 -0.1448
0.0412814 0.217414 -0.144792
0.0407476 0.219907 -0.14477
0.0407418 0.220403 -0.144266
0.040794 0.216412 -0.145299
0.0407805 0.217412 -0.145291
0.040767 0.218412 -0.145283
0.0407534 0.219411 -0.145274
0.0398461 0.214293 -0.132314
0.0398519 0.213797 -0.132818
0.0403451 0.214304 -0.132815
0.0403316 0.215304 -0.132807
0.0398326 0.215293 -0.132306
0.039819 0.216293 -0.132298
0.0398113 0.216797 -0.132793
0.0398578 0.213301 -0.133322
0.0398636 0.212805 -0.133826
0.0403568 0.213312 -0.133823
0.0398094 0.216805 -0.133793
0.0398694 0.212309 -0.13433
0.0398752 0.211814 -0.134834
0.0403684 0.21232 -0.134831
0.0398016 0.217309 -0.134289
0.0397939 0.217813 -0.134785
0.0402871 0.21832 -0.134782
0.0403665 0.212328 -0.135831
0.0398733 0.211822 -0.135834
0.0397862 0.218317 -0.135281
0.0397785 0.218821 -0.135777
0.0402716 0.219328 -0.135774
0.0403646 0.212337 -0.136831
0.0398714 0.21183 -0.136834
0.0402697 0.219336 -0.136774
0.0397765 0.218829 -0.136777
0.0398772 0.211334 -0.137338
0.039883 0.210838 -0.137842
0.0403762 0.211345 -0.137839
0.0403626 0.212345 -0.137831
0.0397688 0.219333 -0.137273
0.0397611 0.219837 -0.137769
0.0402543 0.220344 -0.137766
0.0403743 0.211353 -0.138839
0.0398811 0.210846 -0.138842
0.0403607 0.212353 -0.138831
0.0402523 0.220352 -0.138766
0.0397592 0.219845 -0.138769
0.0403724 0.211361 -0.139839
0.0398792 0.210854 -0.139842
0.0403588 0.212361 -0.139831
0.0402504 0.22036 -0.139766
0.0397572 0.219853 -0.139769
0.0398715 0.211358 -0.140338
0.0398637 0.211862 -0.140834
0.0403569 0.212369 -0.140831
0.0402485 0.220368 -0.140766
0.0397553 0.219861 -0.140769
0.040355 0.212377 -0.141831
0.0398618 0.21187 -0.141834
0.0402466 0.220376 -0.141765
0.0397534 0.219869 -0.141769
0.0403531 0.212385 -0.142831
0.0398599 0.211879 -0.142834
0.0402447 0.220384 -0.142765
0.0397515 0.219878 -0.142769
0.0398522 0.212383 -0.14333
0.0398444 0.212887 -0.143826
0.0403376 0.213393 -0.143822
0.0402428 0.220392 -0.143765
0.0397496 0.219886 -0.143769
0.0398367 0.213391 -0.144322
0.0398232 0.21439 -0.144313
0.0398154 0.214894 -0.144809
0.0403086 0.215401 -0.144806
0.0397612 0.218894 -0.144777
0.0397554 0.21939 -0.144273
0.0402544 0.219401 -0.144774
0.0398077 0.215398 -0.145305
0.0397941 0.216398 -0.145297
0.0397806 0.217398 -0.145289
0.039767 0.218398 -0.145281
0.0388462 0.214279 -0.132312
0.038852 0.213783 -0.132816
0.0388385 0.214783 -0.132808
0.0393317 0.21529 -0.132805
0.0393181 0.21629 -0.132797
0.0388714 0.212288 -0.133328
0.0388772 0.211792 -0.133832
0.0393704 0.212299 -0.133829
0.0388578 0.213288 -0.13332
0.0388307 0.215287 -0.133304
0.0393162 0.216298 -0.133797
0.038823 0.215791 -0.1338
0.038883 0.211296 -0.134336
0.0388888 0.2108 -0.13484
0.039382 0.211307 -0.134837
0.0388153 0.216295 -0.134296
0.0388076 0.216799 -0.134792
0.0393007 0.217306 -0.134788
0.0393801 0.211315 -0.135837
0.0388869 0.210808 -0.13584
0.0392988 0.217314 -0.135788
0.0388056 0.216807 -0.135792
0.0392853 0.218314 -0.13578
0.0393782 0.211323 -0.136837
0.038885 0.210816 -0.13684
0.0387979 0.217311 -0.136287
0.0392834 0.218322 -0.13678
0.0387902 0.217815 -0.136783
0.0388908 0.21032 -0.137344
0.0388967 0.209825 -0.137849
0.0393898 0.210331 -0.137845
0.0387824 0.218319 -0.137279
0.0387747 0.218823 -0.137775
0.0392679 0.21933 -0.137772
0.0393879 0.210339 -0.138845
0.0388947 0.209833 -0.138848
0.039266 0.219338 -0.138772
0.0387728 0.218832 -0.138775
0.039386 0.210348 -0.139845
0.0388928 0.209841 -0.139848
0.0392641 0.219346 -0.139772
0.0387709 0.21884 -0.139775
0.0393841 0.210356 -0.140845
0.0388909 0.209849 -0.140848
0.0393705 0.211356 -0.140837
0.0392622 0.219355 -0.140772
0.038769 0.218848 -0.140775
0.0388832 0.210353 -0.141344
0.0388755 0.210857 -0.14184
0.0393686 0.211364 -0.141837
0.0387612 0.219352 -0.141271
0.0387535 0.219856 -0.141767
0.0393667 0.211372 -0.142837
0.0388735 0.210865 -0.14284
0.0387516 0.219864 -0.142767
0.0388658 0.211369 -0.143336
0.0388581 0.211873 -0.143832
0.0393513 0.21238 -0.143829
0.0387768 0.217872 -0.143783
0.038771 0.218368 -0.143279
0.03927 0.218379 -0.14378
0.0387574 0.219368 -0.143271
0.0392564 0.219379 -0.143772
0.0388503 0.212377 -0.144328
0.0388368 0.213377 -0.14432
0.0388232 0.214377 -0.144312
0.0388155 0.214881 -0.144808
0.039268 0.218387 -0.14478
0.0387749 0.21788 -0.144783
0.0388078 0.215385 -0.145303
0.0387942 0.216385 -0.145295
0.0387807 0.217385 -0.145287
0.0378463 0.214266 -0.13231
0.0378521 0.21377 -0.132814
0.0378386 0.21477 -0.132806
0.037885 0.211274 -0.133335
0.0378909 0.210778 -0.133839
0.038384 0.211285 -0.133836
0.0378715 0.212274 -0.133326
0.0378579 0.213274 -0.133318
0.0383298 0.215285 -0.133803
0.0378367 0.214778 -0.133806
0.0378967 0.210283 -0.134343
0.0379025 0.209787 -0.134847
0.0383957 0.210293 -0.134844
0.0378289 0.215282 -0.134302
0.0378212 0.215786 -0.134798
0.0383144 0.216293 -0.134795
0.0383938 0.210302 -0.135844
0.0379006 0.209795 -0.135847
0.0383125 0.216301 -0.135795
0.0378193 0.215794 -0.135798
0.0383918 0.21031 -0.136844
0.0378987 0.209803 -0.136847
0.0378116 0.216298 -0.136294
0.0378038 0.216802 -0.13679
0.038297 0.217309 -0.136787
0.0378968 0.209811 -0.137847
0.0377961 0.217306 -0.137286
0.0377884 0.21781 -0.137781
0.0382815 0.218317 -0.137778
0.0378948 0.209819 -0.138847
0.0382796 0.218325 -0.138778
0.0377864 0.217818 -0.138781
0.0378929 0.209827 -0.139847
0.0377787 0.218322 -0.139277
0.037771 0.218826 -0.139773
0.037891 0.209835 -0.140847
0.0377691 0.218834 -0.140773
0.0383823 0.21035 -0.141843
0.0378891 0.209844 -0.141847
0.0382603 0.219349 -0.14177
0.0377672 0.218842 -0.141773
0.0383804 0.210358 -0.142843
0.0378872 0.209852 -0.142847
0.0377788 0.217851 -0.142781
0.037773 0.218347 -0.142277
0.038272 0.218357 -0.142778
0.0382584 0.219357 -0.14277
0.0378795 0.210356 -0.143342
0.0378717 0.21086 -0.143838
0.0383649 0.211366 -0.143835
0.0377769 0.217859 -0.143781
0.037864 0.211364 -0.144334
0.0378563 0.211868 -0.14483
0.0383494 0.212374 -0.144827
0.0383359 0.213374 -0.144819
0.0383223 0.214374 -0.144811
0.0377885 0.216867 -0.144789
0.0377827 0.217363 -0.144285
0.0382817 0.217374 -0.144786
0.0378485 0.212372 -0.145326
0.037835 0.213372 -0.145318
0.0378214 0.214371 -0.14531
0.0378079 0.215371 -0.145302
0.0377943 0.216371 -0.145293
0.0373454 0.214263 -0.132809
0.0368851 0.211261 -0.133333
0.0368909 0.210765 -0.133837
0.0368716 0.212261 -0.133325
0.036858 0.21326 -0.133317
0.0373435 0.214271 -0.133809
0.0368503 0.213764 -0.133812
0.0368968 0.210269 -0.134341
0.0369026 0.209773 -0.134845
0.0368426 0.214268 -0.134308
0.0368348 0.214772 -0.134804
0.037328 0.215279 -0.134801
0.0369084 0.209277 -0.135349
0.0369142 0.208781 -0.135853
0.0374074 0.209288 -0.13585
0.0368271 0.215276 -0.1353
0.0368194 0.21578 -0.135796
0.0374055 0.209296 -0.13685
0.0369123 0.208789 -0.136853
0.0373106 0.216295 -0.136793
0.0368175 0.215789 -0.136796
0.0374036 0.209304 -0.13785
0.0369104 0.208798 -0.137853
0.0368097 0.216293 -0.137292
0.036802 0.216797 -0.137788
0.0372952 0.217303 -0.137785
0.0374017 0.209312 -0.13885
0.0369085 0.208806 -0.138853
0.0367943 0.217301 -0.138284
0.0367865 0.217805 -0.13878
0.0373997 0.209321 -0.13985
0.0369066 0.208814 -0.139853
0.0372778 0.218319 -0.139776
0.0367846 0.217813 -0.13978
0.0373978 0.209329 -0.14085
0.0369047 0.208822 -0.140853
0.0372759 0.218328 -0.140776
0.0367827 0.217821 -0.14078
0.0373959 0.209337 -0.14185
0.0369027 0.20883 -0.141853
0.037274 0.218336 -0.141776
0.0367808 0.217829 -0.14178
0.037394 0.209345 -0.14285
0.0369008 0.208838 -0.142853
0.0367789 0.217837 -0.14278
0.0368931 0.209342 -0.143349
0.0368854 0.209846 -0.143845
0.0373785 0.210353 -0.143842
0.0367905 0.216845 -0.143788
0.0367847 0.217341 -0.143284
0.0372837 0.217352 -0.143784
0.0368776 0.21035 -0.144341
0.0368699 0.210854 -0.144836
0.0373631 0.211361 -0.144833
0.0367886 0.216853 -0.144788
0.0368622 0.211358 -0.145332
0.0368486 0.212358 -0.145324
0.0368351 0.213358 -0.145316
0.0368273 0.213862 -0.145812
0.0373205 0.214369 -0.145809
0.0368138 0.214862 -0.145804
0.036808 0.215358 -0.1453
0.0367944 0.216358 -0.145292
0.0368196 0.214366 -0.146308
0.0358852 0.211247 -0.133331
0.035891 0.210751 -0.133835
0.0358717 0.212247 -0.133323
0.0358639 0.212751 -0.133819
0.0363571 0.213258 -0.133816
0.0359104 0.209256 -0.134347
0.0359162 0.20876 -0.134851
0.0364094 0.209266 -0.134848
0.0358969 0.210255 -0.134339
0.0358562 0.213255 -0.134315
0.0358485 0.213759 -0.134811
0.0363417 0.214266 -0.134807
0.0359143 0.208768 -0.135851
0.0358408 0.214263 -0.135307
0.035833 0.214767 -0.135802
0.0363262 0.215274 -0.135799
0.0359201 0.208272 -0.136355
0.0359259 0.207776 -0.136859
0.0364191 0.208283 -0.136856
0.0358253 0.215271 -0.136298
0.0358176 0.215775 -0.136794
0.0364172 0.208291 -0.137856
0.035924 0.207784 -0.137859
0.0358098 0.216279 -0.13729
0.0358021 0.216783 -0.137786
0.0364153 0.208299 -0.138856
0.0359221 0.207792 -0.138859
0.0362934 0.217298 -0.138783
0.0358002 0.216791 -0.138786
0.0364134 0.208307 -0.139856
0.0359202 0.2078 -0.139859
0.0357925 0.217295 -0.139282
0.0357847 0.217799 -0.139778
0.0364115 0.208315 -0.140856
0.0359183 0.207809 -0.140859
0.0357828 0.217807 -0.140778
0.0364096 0.208323 -0.141856
0.0359164 0.207817 -0.141859
0.0357809 0.217815 -0.141778
0.0364076 0.208332 -0.142856
0.0359145 0.207825 -0.142859
0.035779 0.217824 -0.142778
0.0359067 0.208329 -0.143355
0.035899 0.208833 -0.143851
0.0363922 0.20934 -0.143848
0.0357906 0.216832 -0.143786
0.0357848 0.217328 -0.143282
0.0358913 0.209337 -0.144347
0.0358835 0.209841 -0.144843
0.0363767 0.210348 -0.14484
0.0358022 0.21584 -0.144794
0.0357964 0.216336 -0.14429
0.0362954 0.216347 -0.144791
0.0358758 0.210345 -0.145339
0.0358623 0.211345 -0.145331
0.0358487 0.212345 -0.145322
0.035841 0.212849 -0.145818
0.0363342 0.213355 -0.145815
0.0358139 0.214848 -0.145802
0.0358081 0.215344 -0.145298
0.0358332 0.213353 -0.146314
0.0358197 0.214352 -0.146306
0.0353843 0.211244 -0.13383
0.0353708 0.212244 -0.133822
0.0349105 0.209242 -0.134345
0.0349163 0.208746 -0.13485
0.034897 0.210242 -0.134337
0.0348834 0.211242 -0.134329
0.0348699 0.212242 -0.134321
0.0348621 0.212746 -0.134817
0.0353553 0.213252 -0.134814
0.0349221 0.20825 -0.135354
0.034928 0.207754 -0.135858
0.0354211 0.208261 -0.135854
0.0348544 0.21325 -0.135313
0.0348467 0.213754 -0.135809
0.0353398 0.21426 -0.135806
0.0349338 0.207258 -0.136362
0.0349396 0.206763 -0.136866
0.0354328 0.207269 -0.136863
0.0348389 0.214258 -0.136305
0.0348312 0.214762 -0.136801
0.0353244 0.215268 -0.136797
0.0354309 0.207277 -0.137863
0.0349377 0.206771 -0.137866
0.0348235 0.215266 -0.137296
0.0348157 0.21577 -0.137792
0.0353089 0.216276 -0.137789
0.0354289 0.207286 -0.138863
0.0349358 0.206779 -0.138866
0.034808 0.216274 -0.138288
0.0348003 0.216778 -0.138784
0.035427 0.207294 -0.139862
0.0349339 0.206787 -0.139866
0.0352915 0.217292 -0.139781
0.0347984 0.216786 -0.139784
0.0354251 0.207302 -0.140862
0.0349319 0.206795 -0.140866