<VTKFile type="UnstructuredGrid" version="0.1" byte_order="BigEndian">
  <UnstructuredGrid>
    <Piece NumberOfPoints="23102" NumberOfCells="46208">
      <PointData>
        <DataArray type="Float64" Name="position" NumberOfComponents="3" format="ascii">
0.0521127 0.225337 -0.135244
0.0521193 0.224842 -0.135748
0.0526117 0.225349 -0.135745
0.0521043 0.225841 -0.135739
0.0526099 0.225358 -0.136745
0.0521174 0.22485 -0.136748
0.0521024 0.22585 -0.136739
0.052124 0.224355 -0.137253
0.0521306 0.223859 -0.137757
0.052623 0.224367 -0.137753
0.0526081 0.225367 -0.137744
0.0521006 0.225859 -0.137739
0.0526212 0.224376 -0.138753
0.0521288 0.223868 -0.138757
0.0526062 0.225376 -0.138744
0.0520988 0.225868 -0.138739
0.0526194 0.224385 -0.139753
0.0521269 0.223877 -0.139757
0.0526044 0.225384 -0.139744
0.052097 0.225877 -0.139739
0.0521185 0.224382 -0.140252
0.0521035 0.225381 -0.140244
0.0511428 0.223322 -0.13526
0.0511493 0.222827 -0.135764
0.0516418 0.223334 -0.135761
0.0516268 0.224334 -0.135752
0.0511278 0.224322 -0.135251
0.0511128 0.225322 -0.135242
0.0511044 0.225826 -0.135738
0.05164 0.223343 -0.136761
0.0511475 0.222836 -0.136764
0.051625 0.224343 -0.136752
0.0511026 0.225835 -0.136738
0.0516381 0.223352 -0.137761
0.0511457 0.222845 -0.137764
0.0511007 0.225844 -0.137737
0.0516363 0.223361 -0.138761
0.0511438 0.222853 -0.138764
0.0510989 0.225853 -0.138737
0.0516345 0.22337 -0.13976
0.051142 0.222862 -0.139764
0.0510971 0.225862 -0.139737
0.0511336 0.223367 -0.14026
0.0511252 0.223871 -0.140755
0.0516177 0.224378 -0.140752
0.0516027 0.225378 -0.140743
0.0510952 0.225871 -0.140737
0.0516158 0.224387 -0.141752
0.0511234 0.22388 -0.141755
0.0516008 0.225387 -0.141743
0.0510934 0.22588 -0.141737
0.051614 0.224396 -0.142751
0.0511215 0.223889 -0.142755
0.0511 0.225384 -0.142242
0.0511066 0.224889 -0.142746
0.0511131 0.224393 -0.143251
0.0501579 0.222308 -0.135267
0.0501644 0.221812 -0.135771
0.0506569 0.222319 -0.135768
0.0501429 0.223307 -0.135258
0.0501279 0.224307 -0.135249
0.0501129 0.225307 -0.13524
0.0501045 0.225811 -0.135736
0.0506551 0.222328 -0.136768
0.0501626 0.221821 -0.136771
0.0501027 0.22582 -0.136736
0.0506532 0.222337 -0.137768
0.0501608 0.22183 -0.137771
0.0501008 0.225829 -0.137736
0.0506514 0.222346 -0.138768
0.0501589 0.221839 -0.138771
0.050099 0.225838 -0.138736
0.0506496 0.222355 -0.139768
0.0501571 0.221848 -0.139771
0.0500972 0.225847 -0.139736
0.0501487 0.222352 -0.140267
0.0501403 0.222856 -0.140762
0.0506328 0.223364 -0.140759
0.0500954 0.225856 -0.140736
0.0506309 0.223372 -0.141759
0.0501385 0.222865 -0.141762
0.0500935 0.225865 -0.141736
0.0501301 0.223369 -0.142258
0.0501217 0.223874 -0.142753
0.0505991 0.225381 -0.142741
0.0500917 0.225873 -0.142736
0.0501133 0.224378 -0.143249
0.0500983 0.225378 -0.14324
0.049158 0.222293 -0.135265
0.0491646 0.221797 -0.13577
0.049143 0.223292 -0.135256
0.049128 0.224292 -0.135248
0.0491196 0.224797 -0.135743
0.0496121 0.225304 -0.135739
0.0491627 0.221806 -0.13677
0.0491112 0.225301 -0.136239
0.0491028 0.225805 -0.136734
0.0491693 0.22131 -0.137274
0.0491759 0.220815 -0.137779
0.0496683 0.221322 -0.137775
0.049101 0.225814 -0.137734
0.0491675 0.221319 -0.138274
0.0491591 0.221824 -0.13877
0.0490991 0.225823 -0.138734
0.0491656 0.221328 -0.139274
0.0491722 0.220833 -0.139778
0.0496647 0.22134 -0.139775
0.0490973 0.225832 -0.139734
0.0491638 0.221337 -0.140274
0.0491554 0.221841 -0.14077
0.0496479 0.222349 -0.140766
0.0490955 0.225841 -0.140734
0.049646 0.222358 -0.141766
0.0491536 0.22185 -0.141769
0.0490936 0.22585 -0.141734
0.0491452 0.222355 -0.142265
0.0491368 0.222859 -0.142761
0.0496292 0.223366 -0.142757
0.0490918 0.225858 -0.142734
0.0491284 0.223363 -0.143256
0.0491199 0.223868 -0.143752
0.0496124 0.224375 -0.143748
0.0495974 0.225375 -0.143739
0.04909 0.225867 -0.143734
0.0491115 0.224372 -0.144247
0.0490966 0.225372 -0.144238
0.0481599 0.222269 -0.134264
0.0481665 0.221773 -0.134768
0.0486589 0.222281 -0.134764
0.048644 0.22328 -0.134756
0.0481449 0.223269 -0.134255
0.0481365 0.223773 -0.13475
0.0481731 0.221278 -0.135272
0.0481796 0.220782 -0.135777
0.0486721 0.22129 -0.135773
0.0481281 0.224277 -0.135246
0.0481197 0.224782 -0.135741
0.0486703 0.221299 -0.136773
0.0481778 0.220791 -0.136777
0.0481113 0.225286 -0.136237
0.0481029 0.22579 -0.136732
0.048176 0.2208 -0.137777
0.0481011 0.225799 -0.137732
0.0486666 0.221316 -0.138773
0.0481742 0.220809 -0.138777
0.0480992 0.225808 -0.138732
0.0481723 0.220818 -0.139777
0.0480974 0.225817 -0.139732
0.0486629 0.221334 -0.140773
0.0481705 0.220827 -0.140777
0.0480956 0.225826 -0.140732
0.0486611 0.221343 -0.141773
0.0481687 0.220835 -0.141777
0.0480938 0.225835 -0.141732
0.0486593 0.221352 -0.142773
0.0481668 0.220844 -0.142777
0.0486443 0.222352 -0.142764
0.0480919 0.225843 -0.142732
0.0481584 0.221349 -0.143272
0.0481434 0.222348 -0.143263
0.048135 0.222853 -0.143759
0.0486275 0.22336 -0.143755
0.0480901 0.225852 -0.143732
0.0481266 0.223357 -0.144254
0.0481117 0.224357 -0.144245
0.0480967 0.225357 -0.144237
0.0471768 0.221245 -0.133271
0.0471834 0.22075 -0.133775
0.0476759 0.221257 -0.133772
0.0476609 0.222257 -0.133763
0.0471619 0.222245 -0.133262
0.0471535 0.222749 -0.133758
0.047674 0.221266 -0.134772
0.0471816 0.220758 -0.134775
0.047145 0.223254 -0.134253
0.0471366 0.223758 -0.134749
0.0472031 0.219263 -0.135289
0.0472097 0.218768 -0.135793
0.0477022 0.219275 -0.135789
0.0476872 0.220275 -0.135781
0.0471882 0.220263 -0.13528
0.0471282 0.224262 -0.135244
0.0471198 0.224767 -0.13574
0.0472013 0.219272 -0.136289
0.0471929 0.219776 -0.136784
0.0476854 0.220284 -0.13678
0.0476105 0.225283 -0.136736
0.047118 0.224775 -0.13674
0.0476835 0.220293 -0.13778
0.0471911 0.219785 -0.137784
0.0476086 0.225292 -0.137736
0.0471162 0.224784 -0.13774
0.0476817 0.220301 -0.13878
0.0471893 0.219794 -0.138784
0.0471078 0.225289 -0.138235
0.0470994 0.225793 -0.138731
0.0471958 0.219298 -0.139288
0.0472024 0.218803 -0.139793
0.0476949 0.21931 -0.139789
0.0476799 0.22031 -0.13978
0.0470975 0.225802 -0.139731
0.047194 0.219307 -0.140288
0.0471856 0.219812 -0.140784
0.047678 0.220319 -0.14078
0.0470957 0.225811 -0.140731
0.0476762 0.220328 -0.14178
0.0471838 0.219821 -0.141784
0.0470939 0.22582 -0.141731
0.0476744 0.220337 -0.14278
0.0471819 0.219829 -0.142784
0.047092 0.225828 -0.14273
0.0471735 0.220334 -0.143279
0.0471585 0.221334 -0.14327
0.0471501 0.221838 -0.143766
0.0476426 0.222345 -0.143762
0.0470902 0.225837 -0.14373
0.0471417 0.222342 -0.144262
0.0471267 0.223342 -0.144253
0.0471118 0.224342 -0.144244
0.0470968 0.225342 -0.144235
0.0461919 0.22023 -0.133278
0.0461985 0.219735 -0.133782
0.046691 0.220242 -0.133779
0.046177 0.22123 -0.133269
0.046162 0.22223 -0.13326
0.0461536 0.222734 -0.133756
0.0462051 0.219239 -0.134287
0.0462117 0.218744 -0.134791
0.0467041 0.219251 -0.134788
0.0466891 0.220251 -0.134779
0.0461452 0.223239 -0.134251
0.0461368 0.223743 -0.134747
0.0462098 0.218753 -0.135791
0.0461284 0.224247 -0.135242
0.0461199 0.224752 -0.135738
0.0467005 0.219269 -0.136788
0.046208 0.218761 -0.136791
0.0461181 0.22476 -0.136738
0.0466986 0.219278 -0.137788
0.0462062 0.21877 -0.137791
0.0461163 0.224769 -0.137738
0.0466968 0.219287 -0.138788
0.0462043 0.218779 -0.138791
0.0466069 0.225286 -0.138734
0.0461145 0.224778 -0.138738
0.0462025 0.218788 -0.139791
0.046106 0.225283 -0.139233
0.0460976 0.225787 -0.139729
0.0466931 0.219304 -0.140787
0.0462007 0.218797 -0.140791
0.0460958 0.225796 -0.140729
0.0466913 0.219313 -0.141787
0.0461989 0.218806 -0.141791
0.046094 0.225805 -0.141729
0.0466895 0.219322 -0.142787
0.046197 0.218815 -0.142791
0.0460922 0.225813 -0.142729
0.0461886 0.219319 -0.143287
0.0461736 0.220319 -0.143278
0.0461652 0.220823 -0.143773
0.0466577 0.221331 -0.14377
0.0461053 0.224822 -0.143738
0.0460987 0.225318 -0.143233
0.0465978 0.22533 -0.143734
0.0461568 0.221327 -0.144269
0.0461418 0.222327 -0.14426
0.0461269 0.223327 -0.144251
0.0461119 0.224327 -0.144242
0.0452089 0.219206 -0.132285
0.0452154 0.218711 -0.13279
0.0457079 0.219218 -0.132786
0.0456929 0.220218 -0.132777
0.0451939 0.220206 -0.132276
0.0456779 0.221218 -0.132768
0.0451789 0.221206 -0.132268
0.0451705 0.221711 -0.132763
0.0457061 0.219227 -0.133786
0.0452136 0.21872 -0.13379
0.0451621 0.222215 -0.133259
0.0451537 0.222719 -0.133754
0.0452118 0.218729 -0.13479
0.0456443 0.223235 -0.13475
0.0451519 0.222728 -0.134754
0.0452184 0.218233 -0.135294
0.0452249 0.217738 -0.135798
0.0457174 0.218245 -0.135795
0.0451434 0.223232 -0.13525
0.045135 0.223737 -0.135745
0.0456275 0.224244 -0.135742
0.0457156 0.218254 -0.136795
0.0452231 0.217747 -0.136798
0.0451266 0.224241 -0.136241
0.0451182 0.224745 -0.136736
0.0457137 0.218263 -0.137795
0.0452213 0.217755 -0.137798
0.0451164 0.224754 -0.137736
0.0457119 0.218272 -0.138795
0.0452194 0.217764 -0.138798
0.0451146 0.224763 -0.138736
0.0457101 0.218281 -0.139795
0.0452176 0.217773 -0.139798
0.0456052 0.225279 -0.139733
0.0451127 0.224772 -0.139736
0.0457082 0.218289 -0.140795
0.0452158 0.217782 -0.140798
0.0456034 0.225288 -0.140732
0.0451109 0.224781 -0.140736
0.0457064 0.218298 -0.141795
0.045214 0.217791 -0.141798
0.0456015 0.225297 -0.141732
0.0451091 0.22479 -0.141736
0.0457046 0.218307 -0.142795
0.0452121 0.2178 -0.142798
0.0455997 0.225306 -0.142732
0.0451072 0.224799 -0.142736
0.0452037 0.218304 -0.143294
0.0451887 0.219304 -0.143285
0.0451803 0.219808 -0.14378
0.0456728 0.220316 -0.143777
0.0451054 0.224807 -0.143736
0.0451719 0.220313 -0.144276
0.0451569 0.221312 -0.144267
0.0451485 0.221817 -0.144763
0.045641 0.222324 -0.144759
0.045626 0.223324 -0.14475
0.0451186 0.223817 -0.144745
0.045112 0.224312 -0.14424
0.0451401 0.222321 -0.145258
0.0451251 0.223321 -0.145249
0.044224 0.218192 -0.132292
0.0442305 0.217696 -0.132797
0.044723 0.218204 -0.132793
0.044209 0.219191 -0.132284
0.044194 0.220191 -0.132275
0.044179 0.221191 -0.132266
0.0441706 0.221696 -0.132761
0.0447212 0.218212 -0.133793
0.0442287 0.217705 -0.133797
0.0446612 0.222212 -0.133758
0.0441688 0.221704 -0.133761
0.0447193 0.218221 -0.134793
0.0442269 0.217714 -0.134797
0.0446594 0.222221 -0.134758
0.0441669 0.221713 -0.134761
0.0442251 0.217723 -0.135797
0.0441585 0.222218 -0.135257
0.0441501 0.222722 -0.135752
0.0446426 0.223229 -0.135749
0.0442232 0.217732 -0.136797
0.0441417 0.223226 -0.136248
0.0441333 0.223731 -0.136743
0.0446258 0.224238 -0.13674
0.0442214 0.21774 -0.137797
0.0446239 0.224247 -0.13774
0.0441315 0.223739 -0.137743
0.0442196 0.217749 -0.138797
0.0441231 0.224244 -0.138239
0.0441147 0.224748 -0.138734
0.0442261 0.217254 -0.139301
0.0442327 0.216758 -0.139805
0.0447252 0.217266 -0.139802
0.0441129 0.224757 -0.139734
0.0447233 0.217275 -0.140802
0.0442309 0.216767 -0.140805
0.044126 0.223766 -0.140743
0.0441194 0.224262 -0.140239
0.0446185 0.224273 -0.14074
0.0447215 0.217283 -0.141802
0.0442291 0.216776 -0.141805
0.0446166 0.224282 -0.14174
0.0441242 0.223775 -0.141743
0.0447197 0.217292 -0.142802
0.0442272 0.216785 -0.142805
0.0446148 0.224291 -0.14274
0.0441223 0.223784 -0.142743
0.0442188 0.217289 -0.143301
0.0442104 0.217794 -0.143796
0.0447029 0.218301 -0.143793
0.0446879 0.219301 -0.143784
0.044613 0.2243 -0.14374
0.0441205 0.223793 -0.143743
0.044202 0.218298 -0.144292
0.044187 0.219298 -0.144283
0.044172 0.220298 -0.144274
0.0441636 0.220802 -0.14477
0.0446561 0.221309 -0.144766
0.0441337 0.222802 -0.144752
0.0441271 0.223297 -0.144248
0.0446261 0.223309 -0.144748
0.0441552 0.221306 -0.145265
0.0441402 0.222306 -0.145256
0.0432241 0.218177 -0.132291
0.0432307 0.217681 -0.132795
0.0432091 0.219176 -0.132282
0.0432007 0.219681 -0.132777
0.0436931 0.220188 -0.132774
0.0436782 0.221188 -0.132765
0.0432522 0.216186 -0.133309
0.0432588 0.21569 -0.133813
0.0437512 0.216198 -0.133809
0.0437363 0.217198 -0.1338
0.0432372 0.217186 -0.1333
0.0436913 0.220197 -0.133774
0.0431989 0.21969 -0.133777
0.0436763 0.221197 -0.133765
0.0432504 0.216195 -0.134308
0.043242 0.216699 -0.134804
0.0437344 0.217206 -0.1348
0.0431905 0.220194 -0.134273
0.0436745 0.221206 -0.134765
0.043182 0.220698 -0.134768
0.0437326 0.217215 -0.1358
0.0432401 0.216708 -0.135804
0.0431736 0.221203 -0.135264
0.0431652 0.221707 -0.13576
0.0436577 0.222215 -0.135756
0.0437308 0.217224 -0.1368
0.0432383 0.216717 -0.136804
0.0431568 0.222211 -0.136255
0.0431484 0.222716 -0.136751
0.0436409 0.223223 -0.136747
0.0437289 0.217233 -0.1378
0.0432365 0.216726 -0.137804
0.043639 0.223232 -0.137747
0.0431466 0.222725 -0.137751
0.0432431 0.21623 -0.138308
0.0432496 0.215735 -0.138813
0.0437421 0.216242 -0.138809
0.0437271 0.217242 -0.1388
0.0431382 0.223229 -0.138246
0.0431298 0.223733 -0.138742
0.0436222 0.224241 -0.138738
0.0437403 0.216251 -0.139809
0.0432478 0.215743 -0.139813
0.0436204 0.22425 -0.139738
0.0431279 0.223742 -0.139742
0.0437384 0.21626 -0.140809
0.043246 0.215752 -0.140813
0.0431261 0.223751 -0.140742
0.0432376 0.216257 -0.141308
0.0432292 0.216761 -0.141804
0.0431243 0.22376 -0.141742
0.0432357 0.216266 -0.142308
0.0432423 0.21577 -0.142813
0.0437348 0.216277 -0.142809
0.0431225 0.223769 -0.142741
0.0432339 0.216274 -0.143308
0.0432255 0.216779 -0.143804
0.043718 0.217286 -0.1438
0.0431356 0.222778 -0.14375
0.043129 0.223273 -0.143246
0.0436281 0.223285 -0.143747
0.0432171 0.217283 -0.144299
0.0432021 0.218283 -0.14429
0.0431871 0.219283 -0.144281
0.0431787 0.219787 -0.144777
0.0436712 0.220295 -0.144773
0.0431488 0.221787 -0.144759
0.0431422 0.222282 -0.144255
0.0436412 0.222294 -0.144756
0.0431703 0.220291 -0.145272
0.0431553 0.221291 -0.145264
0.0422542 0.216162 -0.132307
0.0422607 0.215666 -0.132811
0.0427532 0.216174 -0.132808
0.0427382 0.217174 -0.132799
0.0422392 0.217162 -0.132298
0.0422242 0.218162 -0.132289
0.0422158 0.218666 -0.132785
0.0427082 0.219173 -0.132781
0.0422589 0.215675 -0.133811
0.0427064 0.219182 -0.133781
0.042214 0.218675 -0.133785
0.0427495 0.216192 -0.134808
0.0422571 0.215684 -0.134811
0.0422055 0.219179 -0.13428
0.0421971 0.219684 -0.134776
0.0426896 0.220191 -0.134772
0.0427477 0.2162 -0.135808
0.0422552 0.215693 -0.135811
0.0421887 0.220188 -0.135271
0.0421803 0.220692 -0.135767
0.0426728 0.2212 -0.135763
0.0422618 0.215198 -0.136316
0.0422684 0.214702 -0.13682
0.0427608 0.215209 -0.136816
0.0427459 0.216209 -0.136808
0.0421719 0.221197 -0.136262
0.0421635 0.221701 -0.136758
0.042656 0.222208 -0.136754
0.042759 0.215218 -0.137816
0.0422666 0.214711 -0.13782
0.042744 0.216218 -0.137807
0.0421551 0.222205 -0.137253
0.0421467 0.22271 -0.137749
0.0427572 0.215227 -0.138816
0.0422647 0.21472 -0.13882
0.0426373 0.223226 -0.138745
0.0421449 0.222719 -0.138749
0.0427554 0.215236 -0.139816
0.0422629 0.214729 -0.13982
0.0426355 0.223235 -0.139745
0.042143 0.222727 -0.139749
0.0427535 0.215245 -0.140816
0.0422611 0.214737 -0.14082
0.0426337 0.223244 -0.140745
0.0421412 0.222736 -0.140749
0.0427517 0.215254 -0.141816
0.0422592 0.214746 -0.14182
0.0427367 0.216254 -0.141807
0.0426318 0.223253 -0.141745
0.0421394 0.222745 -0.141749
0.0427499 0.215263 -0.142816
0.0422574 0.214755 -0.14282
0.04263 0.223261 -0.142745
0.0421376 0.222754 -0.142749
0.042249 0.21526 -0.143315
0.0422406 0.215764 -0.143811
0.0427331 0.216271 -0.143807
0.0421507 0.221763 -0.143758
0.0421441 0.222258 -0.143253
0.0426432 0.22227 -0.143754
0.0422322 0.216268 -0.144306
0.0422172 0.217268 -0.144297
0.0422088 0.217772 -0.144793
0.0427013 0.21828 -0.144789
0.0426863 0.21928 -0.144781
0.0421639 0.220772 -0.144766
0.0421573 0.221267 -0.144262
0.0426563 0.221279 -0.144763
0.0422004 0.218277 -0.145289
0.0421854 0.219277 -0.14528
0.0421704 0.220276 -0.145271
0.0412543 0.216147 -0.132305
0.0412608 0.215651 -0.13281
0.0412393 0.217147 -0.132296
0.0412243 0.218147 -0.132287
0.0412159 0.218651 -0.132783
0.0412674 0.215156 -0.133314
0.041274 0.21466 -0.133818
0.0417665 0.215168 -0.133815
0.0412141 0.21866 -0.133783
0.0417646 0.215177 -0.134815
0.0412722 0.214669 -0.134818
0.0417047 0.219176 -0.134779
0.0412122 0.218669 -0.134783
0.0417628 0.215186 -0.135815
0.0412703 0.214678 -0.135818
0.0412038 0.219173 -0.135278
0.0411889 0.220173 -0.135269
0.0411804 0.220677 -0.135765
0.0412769 0.214183 -0.136323
0.0412835 0.213687 -0.136827
0.0417759 0.214195 -0.136824
0.0416711 0.221194 -0.136761
0.0411786 0.220686 -0.136765
0.0417741 0.214203 -0.137824
0.0412817 0.213696 -0.137827
0.0411702 0.22119 -0.137261
0.0411618 0.221695 -0.137756
0.0416543 0.222202 -0.137752
0.0417723 0.214212 -0.138824
0.0412798 0.213705 -0.138827
0.0411534 0.222199 -0.138252
0.041145 0.222704 -0.138747
0.0417705 0.214221 -0.139823
0.041278 0.213714 -0.139827
0.0411581 0.221713 -0.139756
0.0411516 0.222208 -0.139252
0.0416506 0.22222 -0.139752
0.0417686 0.21423 -0.140823
0.0412762 0.213723 -0.140827
0.0416488 0.222229 -0.140752
0.0411563 0.221721 -0.140756
0.0417668 0.214239 -0.141823
0.0412743 0.213731 -0.141827
0.0416469 0.222238 -0.141752
0.0411545 0.22173 -0.141756
0.041765 0.214248 -0.142823
0.0412725 0.21374 -0.142827
0.0416451 0.222247 -0.142752
0.0411527 0.221739 -0.142756
0.0412641 0.214245 -0.143322
0.0412557 0.214749 -0.143818
0.0417482 0.215256 -0.143814
0.0411508 0.221748 -0.143756
0.0412473 0.215253 -0.144314
0.0412323 0.216253 -0.144305
0.0412173 0.217253 -0.144296
0.0412089 0.217757 -0.144791
0.041179 0.219757 -0.144774
0.0411724 0.220253 -0.144269
0.0416714 0.220265 -0.14477
0.0411574 0.221252 -0.14426
0.0412005 0.218262 -0.145287
0.0411855 0.219262 -0.145278
0.0402544 0.216132 -0.132303
0.040261 0.215636 -0.132808
0.040246 0.216636 -0.132799
0.0407384 0.217144 -0.132795
0.0407234 0.218144 -0.132787
0.0402825 0.214141 -0.133321
0.0402891 0.213646 -0.133826
0.0407815 0.214153 -0.133822
0.0402675 0.215141 -0.133312
0.0407366 0.217153 -0.133795
0.0402441 0.216645 -0.133799
0.0407216 0.218152 -0.133786
0.0402957 0.21315 -0.13433
0.0403022 0.212655 -0.134834
0.0407947 0.213162 -0.134831
0.0407797 0.214162 -0.134822
0.0402357 0.217149 -0.134294
0.0402208 0.218149 -0.134286
0.0402124 0.218654 -0.134781
0.0407929 0.213171 -0.135831
0.0403004 0.212663 -0.135834
0.0407779 0.214171 -0.135822
0.0402039 0.219158 -0.135277
0.0401955 0.219662 -0.135772
0.040688 0.22017 -0.135769
0.040791 0.21318 -0.136831
0.0402986 0.212672 -0.136834
0.0406862 0.220179 -0.136769
0.0401937 0.219671 -0.136772
0.0407892 0.213189 -0.137831
0.0402968 0.212681 -0.137834
0.0401853 0.220176 -0.137268
0.0401769 0.22068 -0.137763
0.0406693 0.221187 -0.13776
0.0407874 0.213197 -0.138831
0.0402949 0.21269 -0.138834
0.0406675 0.221196 -0.13876
0.0401751 0.220689 -0.138763
0.0406525 0.222196 -0.138751
0.0407856 0.213206 -0.139831
0.0402931 0.212699 -0.139834
0.0406657 0.221205 -0.13976
0.0401732 0.220698 -0.139763
0.0407837 0.213215 -0.140831
0.0402913 0.212708 -0.140834
0.0406639 0.221214 -0.14076
0.0401714 0.220707 -0.140763
0.0407819 0.213224 -0.141831
0.0402894 0.212717 -0.141834
0.040662 0.221223 -0.141759
0.0401696 0.220715 -0.141763
0.0407801 0.213233 -0.142831
0.0402876 0.212725 -0.142834
0.0406602 0.221232 -0.142759
0.0401677 0.220724 -0.142763
0.0402792 0.21323 -0.14333
0.0402708 0.213734 -0.143825
0.0407632 0.214242 -0.143822
0.0406584 0.221241 -0.143759
0.0401659 0.220733 -0.143763
0.0402624 0.214239 -0.144321
0.0402474 0.215238 -0.144312
0.040239 0.215743 -0.144807
0.0407315 0.21625 -0.144804
0.0407165 0.21725 -0.144795
0.0401791 0.219742 -0.144772
0.0401725 0.220238 -0.144267
0.0402306 0.216247 -0.145303
0.0402156 0.217247 -0.145294
0.0402006 0.218247 -0.145285
0.0401856 0.219247 -0.145276
0.0392845 0.214117 -0.13232
0.039291 0.213622 -0.132824
0.0397835 0.214129 -0.13282
0.0397685 0.215129 -0.132811
0.0392695 0.215117 -0.132311
0.0392545 0.216117 -0.132302
0.0392461 0.216621 -0.132797
0.0392976 0.213126 -0.133328
0.0393042 0.212631 -0.133833
0.0397966 0.213138 -0.133829
0.0392443 0.21663 -0.133797
0.0393108 0.212135 -0.134337
0.0393173 0.21164 -0.134842
0.0398098 0.212147 -0.134838
0.0392359 0.217134 -0.134293
0.0392274 0.217639 -0.134788
0.0397199 0.218146 -0.134785
0.039808 0.212156 -0.135838
0.0393155 0.211649 -0.135842
0.039219 0.218143 -0.135284
0.0392106 0.218648 -0.135779
0.0397031 0.219155 -0.135776
0.0398061 0.212165 -0.136838
0.0393137 0.211657 -0.136842
0.0397013 0.219164 -0.136776
0.0392088 0.218656 -0.136779
0.0393203 0.211162 -0.137346
0.0393268 0.210666 -0.13785
0.0398193 0.211174 -0.137847
0.0398043 0.212174 -0.137838
0.0392004 0.219161 -0.137275
0.039192 0.219665 -0.13777
0.0396844 0.220173 -0.137767
0.0398175 0.211183 -0.138847
0.039325 0.210675 -0.13885
0.0398025 0.212183 -0.138838
0.0396826 0.220181 -0.138767
0.0391902 0.219674 -0.13877
0.0398156 0.211192 -0.139847
0.0393232 0.210684 -0.13985
0.0398006 0.212191 -0.139838
0.0396808 0.22019 -0.139767
0.0391883 0.219683 -0.13977
0.0393148 0.211189 -0.140346
0.0393064 0.211693 -0.140841
0.0397988 0.2122 -0.140838
0.039679 0.220199 -0.140767
0.0391865 0.219692 -0.14077
0.039797 0.212209 -0.141838
0.0393045 0.211702 -0.141841
0.0396771 0.220208 -0.141767
0.0391847 0.219701 -0.14177
0.0397952 0.212218 -0.142838
0.0393027 0.211711 -0.142841
0.0396753 0.220217 -0.142767
0.0391828 0.219709 -0.14277
0.0392943 0.212215 -0.143337
0.0392859 0.212719 -0.143832
0.0397783 0.213227 -0.143829
0.0396735 0.220226 -0.143767
0.039181 0.219718 -0.14377
0.0392775 0.213224 -0.144328
0.0392625 0.214224 -0.144319
0.0392541 0.214728 -0.144815
0.0397465 0.215235 -0.144811
0.0391942 0.218727 -0.144779
0.0391876 0.219223 -0.144275
0.0396866 0.219235 -0.144775
0.0392457 0.215232 -0.14531
0.0392307 0.216232 -0.145301
0.0392157 0.217232 -0.145292
0.0392007 0.218232 -0.145283
0.0382846 0.214102 -0.132318
0.0382912 0.213607 -0.132822
0.0382762 0.214607 -0.132813
0.0387686 0.215114 -0.13281
0.0387536 0.216114 -0.132801
0.0383127 0.212111 -0.133336
0.0383193 0.211616 -0.13384
0.0388117 0.212123 -0.133836
0.0382977 0.213111 -0.133327
0.0382678 0.215111 -0.133309
0.0387518 0.216123 -0.133801
0.0382594 0.215615 -0.133804
0.0383259 0.21112 -0.134344
0.0383324 0.210625 -0.134849
0.0388249 0.211132 -0.134845
0.038251 0.21612 -0.1343
0.0382425 0.216624 -0.134796
0.038735 0.217131 -0.134792
0.0388231 0.211141 -0.135845
0.0383306 0.210634 -0.135849
0.0387332 0.21714 -0.135792
0.0382407 0.216633 -0.135795
0.0387182 0.21814 -0.135783
0.0388212 0.21115 -0.136845
0.0383288 0.210643 -0.136849
0.0382323 0.217137 -0.136291
0.0387164 0.218149 -0.136783
0.0382239 0.217642 -0.136787
0.0383354 0.210147 -0.137353
0.0383419 0.209652 -0.137858
0.0388344 0.210159 -0.137854
0.0382155 0.218146 -0.137282
0.0382071 0.21865 -0.137778
0.0386995 0.219158 -0.137774
0.0388326 0.210168 -0.138854
0.0383401 0.20966 -0.138858
0.0386977 0.219167 -0.138774
0.0382053 0.218659 -0.138778
0.0388307 0.210177 -0.139854
0.0383383 0.209669 -0.139858
0.0386959 0.219175 -0.139774
0.0382034 0.218668 -0.139778
0.0388289 0.210186 -0.140854
0.0383364 0.209678 -0.140857
0.0388139 0.211185 -0.140845
0.0386941 0.219184 -0.140774
0.0382016 0.218677 -0.140778
0.038328 0.210183 -0.141353
0.0383196 0.210687 -0.141849
0.0388121 0.211194 -0.141845
0.0381932 0.219181 -0.141273
0.0381848 0.219686 -0.141769
0.0388103 0.211203 -0.142845
0.0383178 0.210696 -0.142849
0.038183 0.219694 -0.142769
0.0383094 0.2112 -0.143344
0.038301 0.211704 -0.14384
0.0387934 0.212212 -0.143836
0.0382111 0.217704 -0.143786
0.0382045 0.218199 -0.143282
0.0387035 0.218211 -0.143783
0.0381895 0.219199 -0.143273
0.0386886 0.219211 -0.143774
0.0382926 0.212209 -0.144335
0.0382776 0.213209 -0.144326
0.0382626 0.214209 -0.144317
0.0382542 0.214713 -0.144813
0.0387017 0.21822 -0.144783
0.0382093 0.217712 -0.144786
0.0382458 0.215217 -0.145308
0.0382308 0.216217 -0.1453
0.0382158 0.217217 -0.145291
0.0372847 0.214087 -0.132316
0.0372913 0.213592 -0.132821
0.0372763 0.214592 -0.132812
0.0373278 0.211097 -0.133343
0.0373344 0.210601 -0.133847
0.0378268 0.211108 -0.133844
0.0373128 0.212096 -0.133334
0.0372978 0.213096 -0.133325
0.0377669 0.215108 -0.133808
0.0372745 0.2146 -0.133812
0.037341 0.210106 -0.134352
0.0373475 0.20961 -0.134856
0.03784 0.210117 -0.134852
0.037266 0.215105 -0.134307
0.0372576 0.215609 -0.134803
0.0377501 0.216117 -0.134799
0.0378382 0.210126 -0.135852
0.0373457 0.209619 -0.135856
0.0377483 0.216125 -0.135799
0.0372558 0.215618 -0.135803
0.0378363 0.210135 -0.136852
0.0373439 0.209628 -0.136856
0.0372474 0.216122 -0.136298
0.037239 0.216627 -0.136794
0.0377315 0.217134 -0.13679
0.037342 0.209637 -0.137856
0.0372306 0.217131 -0.137289
0.0372222 0.217635 -0.137785
0.0377146 0.218143 -0.137781
0.0373402 0.209645 -0.138856
0.0377128 0.218152 -0.138781
0.0372204 0.217644 -0.138785
0.0373384 0.209654 -0.139856
0.037212 0.218149 -0.13928
0.0372035 0.218653 -0.139776
0.0373366 0.209663 -0.140856
0.0372017 0.218662 -0.140776
0.0378272 0.210179 -0.141852
0.0373347 0.209672 -0.141856
0.0376923 0.219178 -0.141772
0.0371999 0.218671 -0.141776
0.0378254 0.210188 -0.142852
0.0373329 0.209681 -0.142856
0.037213 0.21768 -0.142785
0.0372065 0.218175 -0.14228
0.0377055 0.218187 -0.142781
0.0376905 0.219187 -0.142772
0.0373245 0.210185 -0.143351
0.0373161 0.21069 -0.143847
0.0378085 0.211197 -0.143843
0.0372112 0.217689 -0.143785
0.0373077 0.211194 -0.144342
0.0372993 0.211698 -0.144838
0.0377917 0.212206 -0.144834
0.0377767 0.213206 -0.144825
0.0377618 0.214205 -0.144816
0.0372244 0.216698 -0.144793
0.0372178 0.217193 -0.144289
0.0377168 0.217205 -0.14479
0.0372909 0.212203 -0.145333
0.0372759 0.213203 -0.145324
0.0372609 0.214202 -0.145316
0.0372459 0.215202 -0.145307
0.0372309 0.216202 -0.145298
0.0367838 0.214084 -0.132815
0.0363279 0.211082 -0.133341
0.0363345 0.210586 -0.133845
0.0363129 0.212081 -0.133332
0.036298 0.213081 -0.133323
0.036782 0.214093 -0.133815
0.0362896 0.213586 -0.133819
0.0363411 0.210091 -0.13435
0.0363477 0.209595 -0.134854
0.0362811 0.21409 -0.134314
0.0362727 0.214594 -0.13481
0.0367652 0.215102 -0.134806
0.0363542 0.2091 -0.135359
0.0363608 0.208604 -0.135863
0.0368533 0.209111 -0.13586
0.0362643 0.215099 -0.135305
0.0362559 0.215603 -0.135801
0.0368514 0.20912 -0.13686
0.036359 0.208613 -0.136863
0.0367465 0.216119 -0.136797
0.0362541 0.215612 -0.136801
0.0368496 0.209129 -0.137859
0.0363571 0.208622 -0.137863
0.0362457 0.216116 -0.137296
0.0362373 0.216621 -0.137792
0.0367297 0.217128 -0.137788
0.0368478 0.209138 -0.138859
0.0363553 0.208631 -0.138863
0.0362289 0.217125 -0.138288
0.0362205 0.217629 -0.138783
0.0368459 0.209147 -0.139859
0.0363535 0.20864 -0.139863
0.0367111 0.218146 -0.139779
0.0362186 0.217638 -0.139783
0.0368441 0.209156 -0.140859
0.0363517 0.208648 -0.140863
0.0367093 0.218154 -0.140779
0.0362168 0.217647 -0.140783
0.0368423 0.209165 -0.141859
0.0363498 0.208657 -0.141863
0.0367074 0.218163 -0.141779
0.036215 0.217656 -0.141783
0.0368404 0.209174 -0.142859
0.036348 0.208666 -0.142863
0.0362132 0.217665 -0.142783
0.0363396 0.20917 -0.143358
0.0363312 0.209675 -0.143854
0.0368236 0.210182 -0.14385
0.0362263 0.216674 -0.143792
0.0362197 0.217169 -0.143287
0.0367188 0.217181 -0.143788
0.0363228 0.210179 -0.144349
0.0363144 0.210683 -0.144845
0.0368068 0.211191 -0.144841
0.0362245 0.216683 -0.144792
0.036306 0.211188 -0.145341
0.036291 0.212188 -0.145332
0.036276 0.213188 -0.145323
0.0362676 0.213692 -0.145818
0.03676 0.214199 -0.145815
0.0362526 0.214692 -0.145809
0.036246 0.215187 -0.145305
0.0362311 0.216187 -0.145296
0.0362592 0.214196 -0.146314
0.035328 0.211067 -0.133339
0.0353346 0.210571 -0.133844
0.0353131 0.212066 -0.13333
0.0353046 0.212571 -0.133826
0.0357971 0.213078 -0.133822
0.0353562 0.209076 -0.134357
0.0353627 0.20858 -0.134862
0.0358552 0.209088 -0.134858
0.0353412 0.210076 -0.134348
0.0352962 0.213075 -0.134322
0.0352878 0.213579 -0.134817
0.0357803 0.214087 -0.134813
0.0353609 0.208589 -0.135861
0.0352794 0.214084 -0.135313
0.035271 0.214588 -0.135808
0.0357635 0.215096 -0.135805
0.0353675 0.208094 -0.136366
0.0353741 0.207598 -0.13687
0.0358665 0.208106 -0.136867
0.0352626 0.215093 -0.136304
0.0352542 0.215597 -0.136799
0.0358647 0.208114 -0.137867
0.0353722 0.207607 -0.13787
0.0352458 0.216101 -0.137295
0.0352374 0.216606 -0.13779
0.0358629 0.208123 -0.138867
0.0353704 0.207616 -0.13887
0.035728 0.217122 -0.138787
0.0352356 0.216614 -0.13879
0.035861 0.208132 -0.139867
0.0353686 0.207625 -0.13987
0.0352272 0.217119 -0.139286
0.0352188 0.217623 -0.139781
0.0358592 0.208141 -0.140867
0.0353668 0.207634 -0.14087
0.0352169 0.217632 -0.140781
0.0358574 0.20815 -0.141867
0.0353649 0.207642 -0.14187
0.0352151 0.217641 -0.141781
0.0358555 0.208159 -0.142866
0.0353631 0.207651 -0.14287
0.0352133 0.21765 -0.142781
0.0353547 0.208156 -0.143366
0.0353463 0.20866 -0.143861
0.0358387 0.209167 -0.143858
0.0352264 0.216659 -0.14379
0.0352198 0.217154 -0.143286
0.0353379 0.209164 -0.144357
0.0353295 0.209669 -0.144852
0.0358219 0.210176 -0.144849
0.0352396 0.215668 -0.144799
0.035233 0.216163 -0.144294
0.035732 0.216175 -0.144795
0.0353211 0.210173 -0.145348
0.0353061 0.211173 -0.145339
0.0352911 0.212173 -0.14533
0.0352827 0.212677 -0.145826
0.0357751 0.213184 -0.145822
0.0352527 0.214677 -0.145808
0.0352461 0.215172 -0.145303
0.0352743 0.213181 -0.146321
0.0352593 0.214181 -0.146312
0.0348272 0.211063 -0.133838
0.0348122 0.212063 -0.13383
0.0343563 0.209061 -0.134355
0.0343629 0.208565 -0.13486
0.0343413 0.210061 -0.134347
0.0343263 0.21106 -0.134338
0.0343113 0.21206 -0.134329
0.0343029 0.212565 -0.134824
0.0347954 0.213072 -0.134821
0.0343694 0.20807 -0.135364
0.034376 0.207574 -0.135869
0.0348685 0.208082 -0.135865
0.0342945 0.213069 -0.13532
0.0342861 0.213573 -0.135815
0.0347786 0.214081 -0.135812
0.0343826 0.207079 -0.136373
0.0343892 0.206583 -0.136877
0.0348816 0.207091 -0.136874
0.0342777 0.214078 -0.136311
0.0342693 0.214582 -0.136806
0.0347618 0.215089 -0.136803
0.0348798 0.2071 -0.137874
0.0343873 0.206592 -0.137877
0.0342609 0.215086 -0.137302
0.0342525 0.215591 -0.137797
0.0347449 0.216098 -0.137794
0.034878 0.207108 -0.138874
0.0343855 0.206601 -0.138877
0.0342441 0.216095 -0.138293
0.0342357 0.216599 -0.138789
0.0348761 0.207117 -0.139874
0.0343837 0.20661 -0.139877
0.0347263 0.217116 -0.139785
0.0342339 0.216608 -0.139789
0.0348743 0.207126 -0.140874
0.0343818 0.206619 -0.140877