<VTKFile type="UnstructuredGrid" version="0.1" byte_order="BigEndian">
  <UnstructuredGrid>
    <Piece NumberOfPoints="23102" NumberOfCells="46208">
      <PointData>
        <DataArray type="Float64" Name="position" NumberOfComponents="3" format="ascii">
0.0527745 0.224282 -0.135315
0.0527798 0.223786 -0.135818
0.0532737 0.224292 -0.135815
0.0527676 0.224786 -0.135811
0.0532721 0.2243 -0.136815
0.0527782 0.223794 -0.136818
0.052766 0.224793 -0.136811
0.0527834 0.223297 -0.137322
0.0527887 0.222801 -0.137826
0.0532826 0.223307 -0.137823
0.0532705 0.224307 -0.137815
0.0527644 0.224801 -0.137811
0.053281 0.223314 -0.138823
0.0527871 0.222808 -0.138826
0.0532689 0.224314 -0.138815
0.0527629 0.224808 -0.138811
0.0532794 0.223322 -0.139823
0.0527855 0.222816 -0.139826
0.0532673 0.224322 -0.139815
0.0527613 0.224816 -0.139811
0.0527787 0.22332 -0.140322
0.0527665 0.224319 -0.140315
0.0517988 0.22227 -0.135328
0.0518041 0.221774 -0.135832
0.052298 0.22228 -0.135829
0.0522859 0.22328 -0.135821
0.0517867 0.22327 -0.135321
0.0517746 0.22427 -0.135313
0.0517677 0.224774 -0.135809
0.0522964 0.222288 -0.136829
0.0518025 0.221782 -0.136832
0.0522843 0.223288 -0.136821
0.0517661 0.224781 -0.136809
0.0522948 0.222295 -0.137829
0.0518009 0.221789 -0.137832
0.0517645 0.224789 -0.137809
0.0522932 0.222302 -0.138829
0.0517993 0.221796 -0.138832
0.0517629 0.224796 -0.138809
0.0522916 0.22231 -0.139829
0.0517977 0.221804 -0.139832
0.0517613 0.224804 -0.139809
0.0517909 0.222308 -0.140328
0.051784 0.222811 -0.140824
0.0522779 0.223317 -0.140821
0.0522658 0.224317 -0.140814
0.0517597 0.224811 -0.140809
0.0522763 0.223325 -0.141821
0.0517824 0.222819 -0.141824
0.0522642 0.224325 -0.141814
0.0517582 0.224818 -0.141809
0.0522747 0.223332 -0.142821
0.0517808 0.222826 -0.142824
0.0517634 0.224322 -0.142313
0.0517687 0.223826 -0.142817
0.051774 0.22333 -0.14332
0.050811 0.221258 -0.135334
0.0508163 0.220762 -0.135838
0.0513102 0.221268 -0.135835
0.0507989 0.222258 -0.135327
0.0507868 0.223258 -0.135319
0.0507746 0.224258 -0.135312
0.0507678 0.224762 -0.135808
0.0513086 0.221276 -0.136835
0.0508147 0.22077 -0.136838
0.0507662 0.224769 -0.136808
0.051307 0.221283 -0.137835
0.0508131 0.220777 -0.137838
0.0507646 0.224777 -0.137808
0.0513054 0.22129 -0.138835
0.0508115 0.220784 -0.138838
0.050763 0.224784 -0.138808
0.0513038 0.221298 -0.139835
0.0508099 0.220792 -0.139838
0.0507614 0.224791 -0.139808
0.0508031 0.221295 -0.140334
0.0507962 0.221799 -0.14083
0.0512901 0.222305 -0.140827
0.0507598 0.224799 -0.140808
0.0512885 0.222313 -0.141827
0.0507946 0.221807 -0.14183
0.0507582 0.224806 -0.141808
0.0507877 0.22231 -0.142326
0.0507809 0.222814 -0.142823
0.0512627 0.22432 -0.142812
0.0507566 0.224814 -0.142808
0.050774 0.223318 -0.143319
0.0507619 0.224317 -0.143311
0.0498111 0.221246 -0.135333
0.0498164 0.22075 -0.135836
0.049799 0.222246 -0.135325
0.0497868 0.223246 -0.135318
0.04978 0.22375 -0.135814
0.0502739 0.224256 -0.135811
0.0498148 0.220757 -0.136836
0.0497731 0.224253 -0.13631
0.0497663 0.224757 -0.136806
0.04982 0.220261 -0.13734
0.0498253 0.219765 -0.137844
0.0503192 0.220271 -0.137841
0.0497647 0.224764 -0.137806
0.0498184 0.220269 -0.13834
0.0498116 0.220772 -0.138836
0.0497631 0.224772 -0.138806
0.0498168 0.220276 -0.13934
0.0498221 0.21978 -0.139844
0.050316 0.220286 -0.139841
0.0497615 0.224779 -0.139806
0.0498153 0.220283 -0.14034
0.0498084 0.220787 -0.140836
0.0503023 0.221293 -0.140833
0.0497599 0.224787 -0.140806
0.0503007 0.221301 -0.141833
0.0498068 0.220795 -0.141836
0.0497583 0.224794 -0.141806
0.0497999 0.221298 -0.142332
0.0497931 0.221802 -0.142829
0.050287 0.222308 -0.142826
0.0497567 0.224802 -0.142806
0.0497862 0.222305 -0.143325
0.0497794 0.222809 -0.143821
0.0502733 0.223315 -0.143818
0.0502611 0.224315 -0.143811
0.0497551 0.224809 -0.143806
0.0497725 0.223313 -0.144317
0.0497604 0.224313 -0.14431
0.0488128 0.221227 -0.134331
0.048818 0.22073 -0.134835
0.0493119 0.221237 -0.134832
0.0492998 0.222236 -0.134824
0.0488006 0.222227 -0.134324
0.0487938 0.22273 -0.13482
0.0488233 0.220234 -0.135338
0.0488286 0.219738 -0.135842
0.0493225 0.220244 -0.135839
0.0487869 0.223234 -0.135316
0.0487801 0.223738 -0.135812
0.0493209 0.220251 -0.136839
0.048827 0.219745 -0.136842
0.0487732 0.224241 -0.136309
0.0487663 0.224745 -0.136805
0.0488254 0.219753 -0.137842
0.0487647 0.224752 -0.137805
0.0493177 0.220266 -0.138839
0.0488238 0.21976 -0.138842
0.0487632 0.22476 -0.138805
0.0488222 0.219768 -0.139842
0.0487616 0.224767 -0.139805
0.0493145 0.220281 -0.140839
0.0488206 0.219775 -0.140842
0.04876 0.224775 -0.140805
0.0493129 0.220288 -0.141839
0.048819 0.219782 -0.141842
0.0487584 0.224782 -0.141805
0.0493113 0.220296 -0.142839
0.0488174 0.21979 -0.142842
0.0492992 0.221296 -0.142832
0.0487568 0.224789 -0.142805
0.0488105 0.220294 -0.143338
0.0487984 0.221293 -0.143331
0.0487916 0.221797 -0.143827
0.0492855 0.222303 -0.143824
0.0487552 0.224797 -0.143805
0.0487847 0.222301 -0.144323
0.0487726 0.223301 -0.144316
0.0487605 0.224301 -0.144308
0.0478265 0.220207 -0.133337
0.0478318 0.219711 -0.133841
0.0483257 0.220217 -0.133838
0.0483136 0.221217 -0.13383
0.0478144 0.221207 -0.13333
0.0478076 0.221711 -0.133826
0.0483241 0.220224 -0.134838
0.0478302 0.219718 -0.134841
0.0478007 0.222214 -0.134322
0.0477938 0.222718 -0.134818
0.0478476 0.218222 -0.135352
0.0478529 0.217726 -0.135856
0.0483468 0.218232 -0.135853
0.0483347 0.219232 -0.135845
0.0478355 0.219222 -0.135344
0.047787 0.223222 -0.135315
0.0477801 0.223725 -0.135811
0.047846 0.21823 -0.136352
0.0478392 0.218733 -0.136848
0.0483331 0.219239 -0.136845
0.0482724 0.224239 -0.136808
0.0477785 0.223733 -0.136811
0.0483315 0.219247 -0.137845
0.0478376 0.218741 -0.137848
0.0482708 0.224246 -0.137808
0.0477769 0.22374 -0.137811
0.0483299 0.219254 -0.138845
0.047836 0.218748 -0.138848
0.0477701 0.224244 -0.138307
0.0477632 0.224748 -0.138803
0.0478412 0.218252 -0.139352
0.0478465 0.217756 -0.139855
0.0483404 0.218262 -0.139852
0.0483283 0.219262 -0.139845
0.0477616 0.224755 -0.139803
0.0478396 0.218259 -0.140352
0.0478328 0.218763 -0.140848
0.0483267 0.219269 -0.140845
0.04776 0.224762 -0.140803
0.0483251 0.219276 -0.141845
0.0478312 0.21877 -0.141848
0.0477585 0.22477 -0.141803
0.0483235 0.219284 -0.142845
0.0478296 0.218778 -0.142848
0.0477569 0.224777 -0.142803
0.0478227 0.219282 -0.143344
0.0478106 0.220281 -0.143337
0.0478038 0.220785 -0.143833
0.0482977 0.221291 -0.14383
0.0477553 0.224785 -0.143803
0.0477969 0.221289 -0.144329
0.0477848 0.222289 -0.144322
0.0477727 0.223289 -0.144314
0.0477605 0.224288 -0.144307
0.0468387 0.219195 -0.133343
0.046844 0.218699 -0.133847
0.0473379 0.219205 -0.133844
0.0468266 0.220195 -0.133335
0.0468145 0.221195 -0.133328
0.0468076 0.221699 -0.133824
0.0468493 0.218203 -0.13435
0.0468545 0.217707 -0.134854
0.0473484 0.218213 -0.134851
0.0473363 0.219212 -0.134844
0.0468008 0.222202 -0.134321
0.0467939 0.222706 -0.134817
0.046853 0.217714 -0.135854
0.0467871 0.22321 -0.135313
0.0467802 0.223713 -0.135809
0.0473453 0.218227 -0.136851
0.0468514 0.217721 -0.136854
0.0467786 0.223721 -0.136809
0.0473437 0.218235 -0.137851
0.0468498 0.217729 -0.137854
0.046777 0.223728 -0.137809
0.0473421 0.218242 -0.138851
0.0468482 0.217736 -0.138854
0.0472693 0.224242 -0.138806
0.0467754 0.223736 -0.138809
0.0468466 0.217744 -0.139854
0.0467686 0.224239 -0.139306
0.0467617 0.224743 -0.139802
0.0473389 0.218257 -0.140851
0.046845 0.217751 -0.140854
0.0467601 0.22475 -0.140802
0.0473373 0.218264 -0.141851
0.0468434 0.217758 -0.141854
0.0467585 0.224758 -0.141802
0.0473357 0.218272 -0.142851
0.0468418 0.217766 -0.142854
0.0467569 0.224765 -0.142802
0.0468349 0.218269 -0.14335
0.0468228 0.219269 -0.143343
0.046816 0.219773 -0.143839
0.0473099 0.220279 -0.143836
0.0467675 0.223773 -0.143809
0.0467622 0.224269 -0.143305
0.0472614 0.224279 -0.143806
0.0468091 0.220277 -0.144335
0.046797 0.221277 -0.144328
0.0467849 0.222276 -0.14432
0.0467727 0.223276 -0.144313
0.0458525 0.218176 -0.132349
0.0458578 0.21768 -0.132853
0.0463517 0.218186 -0.13285
0.0463396 0.219185 -0.132842
0.0458404 0.219176 -0.132341
0.0463275 0.220185 -0.132835
0.0458283 0.220176 -0.132334
0.0458214 0.220679 -0.13283
0.0463501 0.218193 -0.13385
0.0458562 0.217687 -0.133853
0.0458146 0.221183 -0.133327
0.0458077 0.221687 -0.133823
0.0458546 0.217694 -0.134853
0.0463 0.2222 -0.13482
0.0458061 0.221694 -0.134823
0.0458599 0.217198 -0.135356
0.0458652 0.216702 -0.13586
0.0463591 0.217208 -0.135857
0.0457993 0.222198 -0.135319
0.0457924 0.222701 -0.135815
0.0462863 0.223207 -0.135812
0.0463575 0.217215 -0.136857
0.0458636 0.216709 -0.13686
0.0457855 0.223205 -0.136312
0.0457787 0.223709 -0.136808
0.0463559 0.217223 -0.137857
0.045862 0.216717 -0.13786
0.0457771 0.223716 -0.137808
0.0463543 0.21723 -0.138857
0.0458604 0.216724 -0.13886
0.0457755 0.223723 -0.138808
0.0463527 0.217238 -0.139857
0.0458588 0.216732 -0.13986
0.0462678 0.224237 -0.139805
0.0457739 0.223731 -0.139808
0.0463511 0.217245 -0.140857
0.0458572 0.216739 -0.14086
0.0462662 0.224244 -0.140805
0.0457723 0.223738 -0.140808
0.0463495 0.217252 -0.141857
0.0458556 0.216746 -0.14186
0.0462646 0.224252 -0.141805
0.0457707 0.223746 -0.141808
0.0463479 0.21726 -0.142857
0.045854 0.216754 -0.14286
0.046263 0.224259 -0.142805
0.0457691 0.223753 -0.142808
0.0458471 0.217257 -0.143356
0.045835 0.218257 -0.143349
0.0458282 0.218761 -0.143845
0.0463221 0.219267 -0.143842
0.0457675 0.22376 -0.143808
0.0458213 0.219265 -0.144341
0.0458092 0.220265 -0.144334
0.0458023 0.220768 -0.14483
0.0462962 0.221274 -0.144827
0.0462841 0.222274 -0.14482
0.0457781 0.222768 -0.144815
0.0457728 0.223264 -0.144311
0.0457955 0.221272 -0.145326
0.0457833 0.222272 -0.145319
0.0448647 0.217164 -0.132355
0.04487 0.216668 -0.132859
0.0453639 0.217174 -0.132856
0.0448526 0.218164 -0.132347
0.0448405 0.219164 -0.13234
0.0448284 0.220163 -0.132333
0.0448215 0.220667 -0.132829
0.0453623 0.217181 -0.133856
0.0448684 0.216675 -0.133858
0.0453138 0.221181 -0.133826
0.0448199 0.220675 -0.133829
0.0453607 0.217188 -0.134855
0.0448668 0.216682 -0.134858
0.0453122 0.221188 -0.134826
0.0448183 0.220682 -0.134829
0.0448652 0.21669 -0.135858
0.0448115 0.221186 -0.135325
0.0448046 0.221689 -0.135821
0.0452985 0.222195 -0.135818
0.0448636 0.216697 -0.136858
0.0447977 0.222193 -0.136318
0.0447909 0.222697 -0.136814
0.0452848 0.223203 -0.136811
0.044862 0.216705 -0.137858
0.0452832 0.22321 -0.137811
0.0447893 0.222704 -0.137814
0.0448604 0.216712 -0.138858
0.0447824 0.223208 -0.13831
0.0447756 0.223711 -0.138806
0.0448657 0.216216 -0.139362
0.044871 0.21572 -0.139866
0.0453649 0.216226 -0.139863
0.044774 0.223719 -0.139806
0.0453633 0.216233 -0.140863
0.0448694 0.215727 -0.140866
0.0447845 0.222726 -0.140814
0.0447793 0.223222 -0.14031
0.0452784 0.223232 -0.140811
0.0453617 0.21624 -0.141863
0.0448678 0.215734 -0.141866
0.0452768 0.22324 -0.141811
0.0447829 0.222734 -0.141814
0.0453601 0.216248 -0.142863
0.0448662 0.215742 -0.142866
0.0452752 0.223247 -0.142811
0.0447813 0.222741 -0.142814
0.0448593 0.216245 -0.143362
0.0448525 0.216749 -0.143858
0.0453464 0.217255 -0.143855
0.0453343 0.218255 -0.143848
0.0452736 0.223254 -0.143811
0.0447797 0.222748 -0.143814
0.0448456 0.217253 -0.144354
0.0448335 0.218253 -0.144347
0.0448214 0.219253 -0.14434
0.0448145 0.219756 -0.144836
0.0453084 0.220262 -0.144833
0.0447903 0.221756 -0.144821
0.044785 0.222252 -0.144317
0.0452842 0.222262 -0.144818
0.0448077 0.22026 -0.145332
0.0447955 0.22126 -0.145325
0.0438648 0.217152 -0.132353
0.0438701 0.216655 -0.132857
0.0438527 0.218152 -0.132346
0.0438458 0.218655 -0.132842
0.0443397 0.219161 -0.132839
0.0443276 0.220161 -0.132832
0.0438875 0.215159 -0.133368
0.0438927 0.214663 -0.133872
0.0443866 0.215169 -0.133869
0.0443745 0.216169 -0.133861
0.0438753 0.216159 -0.133361
0.0443381 0.219169 -0.133839
0.0438442 0.218663 -0.133842
0.044326 0.220169 -0.133832
0.0438859 0.215167 -0.134368
0.043879 0.21567 -0.134864
0.0443729 0.216176 -0.134861
0.0438374 0.219166 -0.134338
0.0443244 0.220176 -0.134832
0.0438305 0.21967 -0.134835
0.0443713 0.216184 -0.135861
0.0438774 0.215678 -0.135864
0.0438237 0.220174 -0.135331
0.0438168 0.220677 -0.135827
0.0443107 0.221183 -0.135824
0.0443697 0.216191 -0.136861
0.0438758 0.215685 -0.136864
0.0438099 0.221181 -0.136323
0.0438031 0.221685 -0.13682
0.044297 0.222191 -0.136817
0.0443681 0.216199 -0.137861
0.0438742 0.215693 -0.137864
0.0442954 0.222198 -0.137817
0.0438015 0.221692 -0.13782
0.0438795 0.215196 -0.138368
0.0438848 0.2147 -0.138872
0.0443787 0.215206 -0.138869
0.0443665 0.216206 -0.138861
0.0437946 0.222196 -0.138316
0.0437878 0.222699 -0.138812
0.0442817 0.223205 -0.138809
0.0443771 0.215213 -0.139869
0.0438832 0.214707 -0.139872
0.0442801 0.223213 -0.139809
0.0437862 0.222707 -0.139812
0.0443755 0.215221 -0.140869
0.0438816 0.214715 -0.140872
0.0437846 0.222714 -0.140812
0.0438747 0.215219 -0.141368
0.0438679 0.215722 -0.141864
0.043783 0.222721 -0.141812
0.0438731 0.215226 -0.142368
0.0438784 0.21473 -0.142872
0.0443723 0.215236 -0.142869
0.0437814 0.222729 -0.142812
0.0438715 0.215233 -0.143368
0.0438647 0.215737 -0.143864
0.0443586 0.216243 -0.143861
0.0437919 0.221736 -0.14382
0.0437867 0.222233 -0.143316
0.0442858 0.222242 -0.143817
0.0438578 0.216241 -0.14436
0.0438457 0.217241 -0.144353
0.0438336 0.21824 -0.144346
0.0438267 0.218744 -0.144842
0.0443206 0.21925 -0.144839
0.0438025 0.220744 -0.144827
0.0437972 0.22124 -0.144323
0.0442964 0.22125 -0.144824
0.0438199 0.219248 -0.145338
0.0438077 0.220248 -0.145331
0.0428891 0.21514 -0.132367
0.0428944 0.214643 -0.13287
0.0433883 0.215149 -0.132867
0.0433762 0.216149 -0.13286
0.042877 0.21614 -0.132359
0.0428649 0.217139 -0.132352
0.042858 0.217643 -0.132848
0.0433519 0.218149 -0.132845
0.0428928 0.214651 -0.13387
0.0433503 0.218157 -0.133845
0.0428564 0.217651 -0.133848
0.0433851 0.215164 -0.134867
0.0428912 0.214658 -0.13487
0.0428496 0.218154 -0.134344
0.0428427 0.218658 -0.134841
0.0433366 0.219164 -0.134838
0.0433835 0.215172 -0.135867
0.0428896 0.214666 -0.13587
0.0428359 0.219162 -0.135337
0.042829 0.219665 -0.135833
0.0433229 0.220171 -0.13583
0.0428949 0.214169 -0.136374
0.0429002 0.213673 -0.136878
0.0433941 0.214179 -0.136875
0.0433819 0.215179 -0.136867
0.0428221 0.220169 -0.136329
0.0428153 0.220672 -0.136826
0.0433092 0.221179 -0.136823
0.0433925 0.214187 -0.137875
0.0428986 0.213681 -0.137878
0.0433803 0.215187 -0.137867
0.0428084 0.221176 -0.137322
0.0428016 0.22168 -0.137818
0.0433909 0.214194 -0.138875
0.042897 0.213688 -0.138878
0.0432939 0.222193 -0.138815
0.0428 0.221687 -0.138818
0.0433893 0.214201 -0.139875
0.0428954 0.213695 -0.139878
0.0432923 0.222201 -0.139815
0.0427984 0.221695 -0.139818
0.0433877 0.214209 -0.140875
0.0428938 0.213703 -0.140878
0.0432907 0.222208 -0.140815
0.0427968 0.221702 -0.140818
0.0433861 0.214216 -0.141875
0.0428922 0.21371 -0.141878
0.043374 0.215216 -0.141867
0.0432891 0.222215 -0.141815
0.0427952 0.221709 -0.141818
0.0433845 0.214224 -0.142875
0.0428906 0.213718 -0.142878
0.0432875 0.222223 -0.142815
0.0427936 0.221717 -0.142818
0.0428837 0.214221 -0.143374
0.0428769 0.214725 -0.14387
0.0433708 0.215231 -0.143867
0.0428041 0.220724 -0.143825
0.0427989 0.221221 -0.143322
0.043298 0.22123 -0.143822
0.04287 0.215229 -0.144366
0.0428579 0.216229 -0.144359
0.042851 0.216732 -0.144855
0.0433449 0.217238 -0.144852
0.0433328 0.218238 -0.144845
0.0428147 0.219732 -0.144833
0.0428094 0.220228 -0.144329
0.0433086 0.220238 -0.14483
0.0428442 0.217236 -0.145351
0.0428321 0.218236 -0.145344
0.0428199 0.219236 -0.145337
0.0418892 0.215128 -0.132365
0.0418945 0.214631 -0.132869
0.0418771 0.216127 -0.132358
0.041865 0.217127 -0.13235
0.0418581 0.217631 -0.132847
0.0418997 0.214135 -0.133373
0.041905 0.213639 -0.133876
0.0423989 0.214145 -0.133873
0.0418565 0.217638 -0.133847
0.0423973 0.214152 -0.134873
0.0419034 0.213646 -0.134876
0.0423488 0.218152 -0.134844
0.0418549 0.217646 -0.134847
0.0423957 0.21416 -0.135873
0.0419018 0.213654 -0.135876
0.0418481 0.218149 -0.135343
0.0418359 0.219149 -0.135335
0.0418291 0.219653 -0.135832
0.0419071 0.213157 -0.13638
0.0419124 0.212661 -0.136884
0.0424063 0.213167 -0.136881
0.0423214 0.220166 -0.136829
0.0418275 0.21966 -0.136832
0.0424047 0.213175 -0.137881
0.0419108 0.212669 -0.137884
0.0418206 0.220164 -0.137328
0.0418138 0.220668 -0.137824
0.0423077 0.221174 -0.137821
0.0424031 0.213182 -0.138881
0.0419092 0.212676 -0.138884
0.0418069 0.221171 -0.13832
0.0418001 0.221675 -0.138817
0.0424015 0.213189 -0.139881
0.0419076 0.212683 -0.139884
0.0418106 0.220683 -0.139824
0.0418053 0.221179 -0.13932
0.0423045 0.221189 -0.139821
0.0423999 0.213197 -0.140881
0.041906 0.212691 -0.140884
0.0423029 0.221196 -0.140821
0.041809 0.22069 -0.140824
0.0423983 0.213204 -0.141881
0.0419044 0.212698 -0.141883
0.0423013 0.221203 -0.141821
0.0418074 0.220697 -0.141824
0.0423967 0.213212 -0.14288
0.0419028 0.212706 -0.142883
0.0422997 0.221211 -0.142821
0.0418058 0.220705 -0.142824
0.0418959 0.213209 -0.14338
0.0418891 0.213713 -0.143876
0.042383 0.214219 -0.143873
0.0418042 0.220712 -0.143824
0.0418822 0.214217 -0.144372
0.0418701 0.215217 -0.144365
0.041858 0.216216 -0.144357
0.0418511 0.21672 -0.144854
0.0418269 0.21872 -0.144839
0.0418216 0.219216 -0.144335
0.0423208 0.219226 -0.144836
0.0418095 0.220216 -0.144328
0.0418443 0.217224 -0.14535
0.0418321 0.218224 -0.145342
0.0408893 0.215115 -0.132364
0.0408945 0.214619 -0.132867
0.0408824 0.215619 -0.13286
0.0413763 0.216125 -0.132857
0.0413642 0.217125 -0.13285
0.0409119 0.213123 -0.133379
0.0409172 0.212627 -0.133882
0.0414111 0.213133 -0.133879
0.0408998 0.214123 -0.133371
0.0413747 0.216133 -0.133857
0.0408808 0.215626 -0.13386
0.0413626 0.217132 -0.13385
0.0409225 0.212131 -0.134386
0.0409277 0.211634 -0.13489
0.0414216 0.21214 -0.134887
0.0414095 0.21314 -0.134879
0.040874 0.21613 -0.134356
0.0408619 0.21713 -0.134349
0.040855 0.217634 -0.134845
0.04142 0.212148 -0.135887
0.0409261 0.211642 -0.13589
0.0414079 0.213148 -0.135879
0.0408481 0.218137 -0.135341
0.0408413 0.218641 -0.135838
0.0413352 0.219147 -0.135835
0.0414185 0.212155 -0.136887
0.0409246 0.211649 -0.13689
0.0413336 0.219154 -0.136835
0.0408397 0.218648 -0.136838
0.0414169 0.212163 -0.137887
0.040923 0.211657 -0.13789
0.0408328 0.219152 -0.137334
0.040826 0.219656 -0.13783
0.0413199 0.220162 -0.137827
0.0414153 0.21217 -0.138887
0.0409214 0.211664 -0.138889
0.0413183 0.220169 -0.138827
0.0408244 0.219663 -0.13883
0.0413061 0.221169 -0.13882
0.0414137 0.212177 -0.139887
0.0409198 0.211671 -0.139889
0.0413167 0.220177 -0.139827
0.0408228 0.219671 -0.13983
0.0414121 0.212185 -0.140886
0.0409182 0.211679 -0.140889
0.0413151 0.220184 -0.140827
0.0408212 0.219678 -0.14083
0.0414105 0.212192 -0.141886
0.0409166 0.211686 -0.141889
0.0413135 0.220191 -0.141827
0.0408196 0.219685 -0.14183
0.0414089 0.2122 -0.142886
0.040915 0.211694 -0.142889
0.0413119 0.220199 -0.142827
0.040818 0.219693 -0.14283
0.0409081 0.212197 -0.143386
0.0409013 0.212701 -0.143882
0.0413952 0.213207 -0.143879
0.0413103 0.220206 -0.143827
0.0408164 0.2197 -0.14383
0.0408944 0.213205 -0.144378
0.0408823 0.214204 -0.144371
0.0408754 0.214708 -0.144867
0.0413693 0.215214 -0.144864
0.0413572 0.216214 -0.144857
0.0408269 0.218708 -0.144837
0.0408217 0.219204 -0.144334
0.0408686 0.215212 -0.145363
0.0408565 0.216212 -0.145356
0.0408443 0.217212 -0.145348
0.0408322 0.218211 -0.145341
0.0399136 0.213103 -0.132377
0.0399189 0.212607 -0.132881
0.0404128 0.213113 -0.132878
0.0404006 0.214113 -0.13287
0.0399015 0.214103 -0.13237
0.0398894 0.215103 -0.132362
0.0398825 0.215607 -0.132858
0.0399241 0.212111 -0.133384
0.0399294 0.211615 -0.133888
0.0404233 0.212121 -0.133885
0.0398809 0.215614 -0.133858
0.0399347 0.211119 -0.134392
0.0399399 0.210622 -0.134896
0.0404338 0.211128 -0.134893
0.039874 0.216118 -0.134355
0.0398672 0.216622 -0.134851
0.0403611 0.217128 -0.134848
0.0404322 0.211136 -0.135893
0.0399383 0.21063 -0.135896
0.0398603 0.217125 -0.135347
0.0398535 0.217629 -0.135843
0.0403474 0.218135 -0.135841
0.0404307 0.211143 -0.136893
0.0399368 0.210637 -0.136895
0.0403458 0.218142 -0.13684
0.0398519 0.217636 -0.136843
0.039942 0.210141 -0.137399
0.0399473 0.209645 -0.137903
0.0404412 0.210151 -0.1379
0.0404291 0.211151 -0.137892
0.039845 0.21814 -0.13734
0.0398382 0.218644 -0.137836
0.0403321 0.21915 -0.137833
0.0404396 0.210158 -0.1389
0.0399457 0.209652 -0.138903
0.0404275 0.211158 -0.138892
0.0403305 0.219157 -0.138833
0.0398366 0.218651 -0.138836
0.040438 0.210165 -0.1399
0.0399441 0.209659 -0.139903
0.0404259 0.211165 -0.139892
0.0403289 0.219165 -0.139833
0.039835 0.218659 -0.139836
0.0399372 0.210163 -0.140399
0.0399304 0.210667 -0.140895
0.0404243 0.211173 -0.140892
0.0403273 0.219172 -0.140833
0.0398334 0.218666 -0.140836
0.0404227 0.21118 -0.141892
0.0399288 0.210674 -0.141895
0.0403257 0.219179 -0.141833
0.0398318 0.218673 -0.141836
0.0404211 0.211188 -0.142892
0.0399272 0.210682 -0.142895
0.0403241 0.219187 -0.142833
0.0398302 0.218681 -0.142836
0.0399203 0.211185 -0.143392
0.0399135 0.211689 -0.143888
0.0404074 0.212195 -0.143885
0.0403225 0.219194 -0.143833
0.0398286 0.218688 -0.143836
0.0399066 0.212193 -0.144384
0.0398945 0.213192 -0.144377
0.0398876 0.213696 -0.144873
0.0403815 0.214202 -0.14487
0.0398391 0.217696 -0.144843
0.0398339 0.218192 -0.14434
0.040333 0.218202 -0.14484
0.0398808 0.2142 -0.145369
0.0398687 0.2152 -0.145362
0.0398565 0.2162 -0.145354
0.0398444 0.217199 -0.145347
0.0389137 0.213091 -0.132376
0.0389189 0.212595 -0.132879
0.0389068 0.213595 -0.132872
0.0394007 0.214101 -0.132869
0.0393886 0.215101 -0.132861
0.0389363 0.211099 -0.13339
0.0389416 0.210603 -0.133894
0.0394355 0.211109 -0.133891
0.0389242 0.212099 -0.133383
0.0389 0.214099 -0.133368
0.039387 0.215108 -0.133861
0.0388931 0.214602 -0.133864
0.0389469 0.210106 -0.134398
0.0389521 0.20961 -0.134901
0.039446 0.210116 -0.134899
0.0388862 0.215106 -0.134361
0.0388794 0.21561 -0.134857
0.0393733 0.216116 -0.134854
0.0394444 0.210124 -0.135898
0.0389505 0.209618 -0.135901
0.0393717 0.216123 -0.135854
0.0388778 0.215617 -0.135857
0.0393596 0.217123 -0.135846
0.0394429 0.210131 -0.136898
0.038949 0.209625 -0.136901
0.0388709 0.216121 -0.136353
0.039358 0.21713 -0.136846
0.0388641 0.216624 -0.136849
0.0389542 0.209129 -0.137405
0.0389595 0.208633 -0.137909
0.0394534 0.209139 -0.137906
0.0388572 0.217128 -0.137346
0.0388504 0.217632 -0.137842
0.0393443 0.218138 -0.137839
0.0394518 0.209146 -0.138906
0.0389579 0.20864 -0.138909
0.0393427 0.218145 -0.138839
0.0388488 0.217639 -0.138842
0.0394502 0.209153 -0.139906
0.0389563 0.208647 -0.139909
0.0393411 0.218153 -0.139839
0.0388472 0.217646 -0.139842
0.0394486 0.209161 -0.140906
0.0389547 0.208655 -0.140909
0.0394365 0.210161 -0.140898
0.0393395 0.21816 -0.140839
0.0388456 0.217654 -0.140842
0.0389479 0.209158 -0.141405
0.038941 0.209662 -0.141901
0.0394349 0.210168 -0.141898
0.0388387 0.218158 -0.141338
0.0388319 0.218661 -0.141834
0.0394333 0.210176 -0.142898
0.0389394 0.20967 -0.142901
0.0388303 0.218669 -0.142834
0.0389325 0.210173 -0.143398
0.0389257 0.210677 -0.143894
0.0394196 0.211183 -0.143891
0.0388529 0.216676 -0.143849
0.0388477 0.217172 -0.143345
0.0393468 0.217182 -0.143846
0.0388355 0.218172 -0.143338
0.0393347 0.218182 -0.143839
0.0389188 0.211181 -0.14439
0.0389067 0.21218 -0.144383
0.0388946 0.21318 -0.144375
0.0388877 0.213684 -0.144871
0.0393452 0.21719 -0.144846
0.0388513 0.216684 -0.144849
0.0388809 0.214188 -0.145368
0.0388687 0.215188 -0.14536
0.0388566 0.216187 -0.145353
0.0379138 0.213079 -0.132374
0.037919 0.212583 -0.132878
0.0379069 0.213583 -0.13287
0.0379485 0.210087 -0.133396
0.0379538 0.209591 -0.1339
0.0384477 0.210097 -0.133897
0.0379364 0.211087 -0.133389
0.0379243 0.212087 -0.133381
0.0383992 0.214096 -0.133867
0.0379053 0.21359 -0.13387
0.0379591 0.209094 -0.134404
0.0379643 0.208598 -0.134907
0.0384582 0.209104 -0.134904
0.0378984 0.214094 -0.134367
0.0378916 0.214598 -0.134863
0.0383855 0.215104 -0.13486
0.0384566 0.209112 -0.135904
0.0379627 0.208606 -0.135907
0.0383839 0.215111 -0.13586
0.03789 0.214605 -0.135863
0.0384551 0.209119 -0.136904
0.0379612 0.208613 -0.136907
0.0378831 0.215109 -0.136359
0.0378763 0.215612 -0.136855
0.0383702 0.216118 -0.136852
0.0379596 0.20862 -0.137907
0.0378694 0.216116 -0.137352
0.0378626 0.21662 -0.137848
0.0383565 0.217126 -0.137845
0.037958 0.208628 -0.138907
0.0383549 0.217133 -0.138845
0.037861 0.216627 -0.138848
0.0379564 0.208635 -0.139907
0.0378541 0.217131 -0.139344
0.0378473 0.217634 -0.13984
0.0379548 0.208643 -0.140907
0.0378457 0.217642 -0.14084
0.0384471 0.209156 -0.141904
0.0379532 0.20865 -0.141907
0.038338 0.218155 -0.141837
0.0378441 0.217649 -0.14184
0.0384455 0.209164 -0.142904
0.0379516 0.208658 -0.142907
0.0378546 0.216657 -0.142848
0.0378493 0.217153 -0.142344
0.0383485 0.217163 -0.142845
0.0383364 0.218163 -0.142837
0.0379447 0.209161 -0.143403
0.0379379 0.209665 -0.1439
0.0384318 0.210171 -0.143897
0.037853 0.216664 -0.143848
0.037931 0.210168 -0.144396
0.0379242 0.210672 -0.144892
0.0384181 0.211178 -0.144889
0.0384059 0.212178 -0.144882
0.0383938 0.213178 -0.144874
0.0378635 0.215672 -0.144855
0.0378583 0.216168 -0.144351
0.0383574 0.216178 -0.144852
0.0379173 0.211176 -0.145389
0.0379052 0.212176 -0.145381
0.0378931 0.213176 -0.145374
0.0378809 0.214175 -0.145366
0.0378688 0.215175 -0.145359
0.037413 0.213077 -0.132873
0.0369486 0.210075 -0.133395
0.0369539 0.209579 -0.133898
0.0369365 0.211075 -0.133387
0.0369244 0.212075 -0.13338
0.0374114 0.213084 -0.133873
0.0369175 0.212578 -0.133876
0.0369591 0.209082 -0.134402
0.0369644 0.208586 -0.134906
0.0369106 0.213082 -0.134372
0.0369038 0.213586 -0.134869
0.0373977 0.214092 -0.134866
0.0369697 0.20809 -0.13541
0.0369749 0.207594 -0.135913
0.0374688 0.2081 -0.13591
0.0368969 0.214089 -0.135365
0.0368901 0.214593 -0.135861
0.0374673 0.208107 -0.13691
0.0369734 0.207601 -0.136913
0.0373824 0.215106 -0.136858
0.0368885 0.2146 -0.136861
0.0374657 0.208114 -0.13791
0.0369718 0.207608 -0.137913
0.0368816 0.215104 -0.137358
0.0368748 0.215608 -0.137854
0.0373687 0.216114 -0.137851
0.0374641 0.208122 -0.13891
0.0369702 0.207616 -0.138913
0.0368679 0.216111 -0.13835
0.036861 0.216615 -0.138846
0.0374625 0.208129 -0.13991
0.0369686 0.207623 -0.139913
0.0373534 0.217128 -0.139843
0.0368595 0.216622 -0.139846
0.0374609 0.208137 -0.14091
0.036967 0.207631 -0.140913
0.0373518 0.217136 -0.140843
0.0368579 0.21663 -0.140846
0.0374593 0.208144 -0.14191
0.0369654 0.207638 -0.141913
0.0373502 0.217143 -0.141843
0.0368563 0.216637 -0.141846
0.0374577 0.208151 -0.14291
0.0369638 0.207645 -0.142913
0.0368547 0.216645 -0.142846
0.0369569 0.208149 -0.143409
0.0369501 0.208653 -0.143906
0.037444 0.209159 -0.143903
0.0368652 0.215652 -0.143854
0.0368599 0.216148 -0.14335
0.0373591 0.216158 -0.143851
0.0369432 0.209156 -0.144402
0.0369364 0.20966 -0.144898
0.0374303 0.210166 -0.144895
0.0368636 0.215659 -0.144854
0.0369295 0.210164 -0.145394
0.0369174 0.211164 -0.145387
0.0369053 0.212164 -0.14538
0.0368984 0.212667 -0.145876
0.0373923 0.213173 -0.145873
0.0368863 0.213667 -0.145868
0.036881 0.214163 -0.145365
0.0368689 0.215163 -0.145357
0.0368915 0.213171 -0.146372
0.0359487 0.210063 -0.133393
0.035954 0.209566 -0.133897
0.0359366 0.211063 -0.133386
0.0359297 0.211566 -0.133882
0.0364236 0.212072 -0.133879
0.0359713 0.20807 -0.134408
0.0359766 0.207574 -0.134912
0.0364705 0.20808 -0.134909
0.0359592 0.20907 -0.134401
0.0359228 0.21207 -0.134378
0.035916 0.212574 -0.134875
0.0364099 0.21308 -0.134872
0.035975 0.207581 -0.135912
0.0359091 0.213077 -0.135371
0.0359023 0.213581 -0.135867
0.0363962 0.214087 -0.135864
0.0359803 0.207085 -0.136416
0.0359856 0.206589 -0.136919
0.0364795 0.207095 -0.136916
0.0358954 0.214084 -0.136363
0.0358886 0.214588 -0.13686
0.0364779 0.207102 -0.137916
0.035984 0.206596 -0.137919
0.0358817 0.215092 -0.137356
0.0358748 0.215595 -0.137852
0.0364763 0.20711 -0.138916
0.0359824 0.206604 -0.138919
0.0363671 0.216109 -0.138849
0.0358732 0.215603 -0.138852
0.0364747 0.207117 -0.139916
0.0359808 0.206611 -0.139919
0.0358664 0.216107 -0.139349
0.0358595 0.21661 -0.139845
0.0364731 0.207125 -0.140916
0.0359792 0.206619 -0.140919
0.0358579 0.216618 -0.140845
0.0364715 0.207132 -0.141916
0.0359776 0.206626 -0.141919
0.0358563 0.216625 -0.141845
0.0364699 0.207139 -0.142916
0.035976 0.206633 -0.142919
0.0358548 0.216632 -0.142845
0.0359691 0.207137 -0.143415
0.0359623 0.207641 -0.143912
0.0364562 0.208147 -0.143909
0.0358653 0.21564 -0.143852
0.03586 0.216136 -0.143348
0.0359554 0.208144 -0.144408
0.0359486 0.208648 -0.144904
0.0364425 0.209154 -0.144901
0.0358758 0.214647 -0.14486
0.0358706 0.215144 -0.144356
0.0363697 0.215153 -0.144857
0.0359417 0.209152 -0.1454
0.0359296 0.210152 -0.145393
0.0359175 0.211152 -0.145386
0.0359106 0.211655 -0.145882
0.0364045 0.212161 -0.145879
0.0358863 0.213655 -0.145867
0.0358811 0.214151 -0.145363
0.0359037 0.212159 -0.146378
0.0358916 0.213159 -0.146371
0.0354479 0.21006 -0.133893
0.0354358 0.21106 -0.133885
0.0349714 0.208058 -0.134407
0.0349767 0.207562 -0.13491
0.0349593 0.209058 -0.134399
0.0349472 0.210058 -0.134392
0.034935 0.211058 -0.134384
0.0349282 0.211561 -0.134881
0.0354221 0.212068 -0.134878
0.034982 0.207066 -0.135414
0.0349872 0.206569 -0.135918
0.0354811 0.207075 -0.135915
0.0349213 0.212065 -0.135377
0.0349145 0.212569 -0.135873
0.0354084 0.213075 -0.13587
0.0349925 0.206073 -0.136421
0.0349978 0.205577 -0.136925
0.0354917 0.206083 -0.136922
0.0349076 0.213072 -0.136369
0.0349008 0.213576 -0.136866
0.0353947 0.214082 -0.136863
0.0354901 0.20609 -0.137922
0.0349962 0.205584 -0.137925
0.0348939 0.21408 -0.137362
0.034887 0.214583 -0.137858
0.0353809 0.215089 -0.137855
0.0354885 0.206098 -0.138922
0.0349946 0.205592 -0.138925
0.0348802 0.215087 -0.138354
0.0348733 0.215591 -0.138851
0.0354869 0.206105 -0.139922
0.034993 0.205599 -0.139925
0.0353656 0.216104 -0.139848
0.0348717 0.215598 -0.139851
0.0354853 0.206113 -0.140922
0.0349914 0.205607 -0.140925