<VTKFile type="UnstructuredGrid" version="0.1" byte_order="BigEndian">
  <UnstructuredGrid>
    <Piece NumberOfPoints="23102" NumberOfCells="46208">
      <PointData>
        <DataArray type="Float64" Name="position" NumberOfComponents="3" format="ascii">
0.0559947 0.2255 -0.135288
0.0559944 0.225003 -0.135791
0.0564931 0.225505 -0.135789
0.0559918 0.226003 -0.135785
0.0564899 0.225511 -0.136789
0.0559912 0.22501 -0.136791
0.0559886 0.22601 -0.136785
0.0559909 0.224513 -0.137294
0.0559907 0.224016 -0.137797
0.0564893 0.224517 -0.137796
0.0564867 0.225517 -0.137789
0.0559853 0.226016 -0.137785
0.0564861 0.224524 -0.138796
0.0559875 0.224022 -0.138797
0.0564834 0.225524 -0.138789
0.0559821 0.226022 -0.138785
0.0564829 0.22453 -0.139796
0.0559842 0.224029 -0.139797
0.0564802 0.22553 -0.139789
0.0559789 0.226029 -0.139784
0.0559813 0.224532 -0.140294
0.0559786 0.225532 -0.140288
0.0550001 0.223497 -0.135297
0.0549998 0.223001 -0.135801
0.0554985 0.223502 -0.135799
0.0554958 0.224502 -0.135793
0.0549974 0.224497 -0.135291
0.0549947 0.225497 -0.135285
0.0549918 0.226001 -0.135781
0.0554952 0.223508 -0.136799
0.0549966 0.223007 -0.136801
0.0554926 0.224508 -0.136793
0.0549886 0.226007 -0.136781
0.055492 0.223515 -0.137799
0.0549934 0.223013 -0.137801
0.0549853 0.226013 -0.137781
0.0554888 0.223521 -0.138799
0.0549901 0.22302 -0.138801
0.0549821 0.22602 -0.138781
0.0554856 0.223528 -0.139799
0.0549869 0.223026 -0.1398
0.0549789 0.226026 -0.139781
0.054984 0.223529 -0.140297
0.054981 0.224033 -0.140794
0.0554797 0.224534 -0.140792
0.055477 0.225534 -0.140786
0.0549757 0.226033 -0.140781
0.0554765 0.22454 -0.141792
0.0549778 0.224039 -0.141794
0.0554738 0.22554 -0.141786
0.0549725 0.226039 -0.141781
0.0554732 0.224547 -0.142792
0.0549746 0.224045 -0.142794
0.0549722 0.225542 -0.142284
0.0549719 0.225045 -0.142788
0.0549716 0.224549 -0.143291
0.0540027 0.222495 -0.135301
0.0540025 0.221998 -0.135804
0.0545011 0.222499 -0.135802
0.0540001 0.223495 -0.135294
0.0539974 0.224495 -0.135288
0.0539947 0.225495 -0.135281
0.0539918 0.225998 -0.135778
0.0544979 0.222506 -0.136802
0.0539992 0.222004 -0.136804
0.0539886 0.226004 -0.136778
0.0544947 0.222512 -0.137802
0.053996 0.222011 -0.137804
0.0539854 0.226011 -0.137778
0.0544915 0.222518 -0.138802
0.0539928 0.222017 -0.138804
0.0539821 0.226017 -0.138778
0.0544882 0.222525 -0.139802
0.0539896 0.222024 -0.139804
0.0539789 0.226023 -0.139778
0.0539866 0.222527 -0.1403
0.0539837 0.22303 -0.140797
0.0544824 0.223531 -0.140796
0.0539757 0.22603 -0.140778
0.0544791 0.223538 -0.141796
0.0539805 0.223036 -0.141797
0.0539725 0.226036 -0.141778
0.0539775 0.223539 -0.142294
0.0539746 0.224043 -0.142791
0.0544706 0.225544 -0.142783
0.0539693 0.226043 -0.142778
0.0539716 0.224546 -0.143288
0.053969 0.225546 -0.143281
0.0530028 0.222492 -0.135297
0.0530025 0.221995 -0.135801
0.0530001 0.223492 -0.135291
0.0529974 0.224492 -0.135285
0.0529945 0.224995 -0.135781
0.0534931 0.225497 -0.13578
0.0529993 0.222002 -0.136801
0.0529915 0.225498 -0.136278
0.0529886 0.226002 -0.136775
0.052999 0.221505 -0.137304
0.0529987 0.221008 -0.137807
0.0534974 0.221509 -0.137805
0.0529854 0.226008 -0.137775
0.0529958 0.221511 -0.138304
0.0529928 0.222014 -0.138801
0.0529821 0.226014 -0.138775
0.0529925 0.221518 -0.139304
0.0529923 0.221021 -0.139807
0.0534909 0.221522 -0.139805
0.0529789 0.226021 -0.139775
0.0529893 0.221524 -0.140304
0.0529864 0.222027 -0.1408
0.053485 0.222529 -0.140799
0.0529757 0.226027 -0.140775
0.0534818 0.222535 -0.141799
0.0529832 0.222034 -0.1418
0.0529725 0.226034 -0.141775
0.0529802 0.222537 -0.142297
0.0529773 0.22304 -0.142794
0.0534759 0.223541 -0.142792
0.0529693 0.22604 -0.142775
0.0529743 0.223543 -0.143291
0.0529714 0.224046 -0.143788
0.05347 0.224548 -0.143786
0.0534674 0.225548 -0.14378
0.052966 0.226046 -0.143775
0.0529684 0.22455 -0.144284
0.0529658 0.22555 -0.144278
0.052006 0.222483 -0.134294
0.0520057 0.221986 -0.134797
0.0525044 0.222487 -0.134796
0.0525017 0.223487 -0.134789
0.0520033 0.223483 -0.134288
0.0520004 0.223986 -0.134785
0.0520054 0.221489 -0.135301
0.0520052 0.220993 -0.135804
0.0525038 0.221494 -0.135802
0.0519974 0.224489 -0.135281
0.0519945 0.224992 -0.135778
0.0525006 0.2215 -0.136802
0.0520019 0.220999 -0.136804
0.0519915 0.225496 -0.136275
0.0519886 0.225999 -0.136772
0.0519987 0.221005 -0.137804
0.0519854 0.226005 -0.137772
0.0524942 0.221513 -0.138802
0.0519955 0.221012 -0.138804
0.0519822 0.226012 -0.138772
0.0519923 0.221018 -0.139804
0.0519789 0.226018 -0.139772
0.0524877 0.221526 -0.140802
0.0519891 0.221025 -0.140804
0.0519757 0.226024 -0.140772
0.0524845 0.221532 -0.141802
0.0519858 0.221031 -0.141804
0.0519725 0.226031 -0.141772
0.0524813 0.221539 -0.142802
0.0519826 0.221037 -0.142804
0.0524786 0.222539 -0.142796
0.0519693 0.226037 -0.142772
0.0519797 0.221541 -0.1433
0.051977 0.222541 -0.143294
0.0519741 0.223044 -0.143791
0.0524727 0.223545 -0.143789
0.0519661 0.226044 -0.143772
0.0519711 0.223547 -0.144288
0.0519684 0.224547 -0.144281
0.0519658 0.225547 -0.144275
0.0510119 0.221474 -0.133297
0.0510116 0.220977 -0.133801
0.0515103 0.221478 -0.133799
0.0515076 0.222478 -0.133793
0.0510092 0.222474 -0.133291
0.0510063 0.222977 -0.133788
0.051507 0.221485 -0.134799
0.0510084 0.220983 -0.134801
0.0510033 0.22348 -0.134285
0.0510004 0.223983 -0.134781
0.0510108 0.219487 -0.13531
0.0510105 0.21899 -0.135813
0.0515092 0.219491 -0.135812
0.0515065 0.220491 -0.135805
0.0510081 0.220487 -0.135304
0.0509974 0.224487 -0.135278
0.0509945 0.22499 -0.135775
0.0510076 0.219493 -0.13631
0.0510046 0.219996 -0.136807
0.0515033 0.220498 -0.136805
0.0514899 0.225498 -0.136773
0.0509913 0.224996 -0.136775
0.0515001 0.220504 -0.137805
0.0510014 0.220003 -0.137807
0.0514867 0.225504 -0.137773
0.050988 0.225003 -0.137775
0.0514968 0.22051 -0.138805
0.0509982 0.220009 -0.138807
0.0509851 0.225506 -0.138272
0.0509822 0.226009 -0.138768
0.0509979 0.219512 -0.13931
0.0509976 0.219016 -0.139813
0.0514963 0.219517 -0.139812
0.0514936 0.220517 -0.139805
0.0509789 0.226015 -0.139768
0.0509947 0.219519 -0.14031
0.0509917 0.220022 -0.140807
0.0514904 0.220523 -0.140805
0.0509757 0.226022 -0.140768
0.0514872 0.22053 -0.141805
0.0509885 0.220028 -0.141807
0.0509725 0.226028 -0.141768
0.0514839 0.220536 -0.142805
0.0509853 0.220035 -0.142807
0.0509693 0.226035 -0.142768
0.0509823 0.220538 -0.143304
0.0509797 0.221538 -0.143297
0.0509767 0.222041 -0.143794
0.0514754 0.222542 -0.143792
0.0509661 0.226041 -0.143768
0.0509738 0.222544 -0.144291
0.0509711 0.223544 -0.144284
0.0509685 0.224544 -0.144278
0.0509658 0.225544 -0.144272
0.0500146 0.220471 -0.133301
0.0500143 0.219974 -0.133804
0.0505129 0.220476 -0.133802
0.0500119 0.221471 -0.133294
0.0500092 0.222471 -0.133288
0.0500063 0.222974 -0.133785
0.050014 0.219478 -0.134307
0.0500137 0.218981 -0.13481
0.0505124 0.219482 -0.134809
0.0505097 0.220482 -0.134802
0.0500033 0.223478 -0.134281
0.0500004 0.223981 -0.134778
0.0500105 0.218987 -0.13581
0.0499974 0.224484 -0.135275
0.0499945 0.224987 -0.135772
0.0505059 0.219495 -0.136809
0.0500073 0.218994 -0.13681
0.0499913 0.224994 -0.136772
0.0505027 0.219501 -0.137809
0.0500041 0.219 -0.13781
0.0499881 0.225 -0.137772
0.0504995 0.219508 -0.138809
0.0500008 0.219006 -0.13881
0.0504835 0.225508 -0.13877
0.0499848 0.225006 -0.138772
0.0499976 0.219013 -0.13981
0.0499819 0.225509 -0.139268
0.0499789 0.226013 -0.139765
0.0504931 0.219521 -0.140808
0.0499944 0.219019 -0.14081
0.0499757 0.226019 -0.140765
0.0504898 0.219527 -0.141808
0.0499912 0.219026 -0.14181
0.0499725 0.226025 -0.141765
0.0504866 0.219533 -0.142808
0.049988 0.219032 -0.14281
0.0499693 0.226032 -0.142765
0.049985 0.219535 -0.143307
0.0499824 0.220535 -0.1433
0.0499794 0.221038 -0.143797
0.0504781 0.22154 -0.143796
0.0499687 0.225038 -0.143772
0.049969 0.225535 -0.143268
0.0504674 0.22554 -0.14377
0.0499765 0.221542 -0.144294
0.0499738 0.222542 -0.144288
0.0499711 0.223542 -0.144281
0.0499685 0.224542 -0.144275
0.0490205 0.219462 -0.132304
0.0490202 0.218965 -0.132807
0.0495188 0.219467 -0.132805
0.0495162 0.220467 -0.132799
0.0490178 0.220462 -0.132297
0.0495135 0.221467 -0.132793
0.0490151 0.221462 -0.132291
0.0490122 0.221965 -0.132788
0.0495156 0.219473 -0.133805
0.049017 0.218972 -0.133807
0.0490092 0.222468 -0.133285
0.0490063 0.222972 -0.133781
0.0490137 0.218978 -0.134807
0.0495017 0.223479 -0.13478
0.0490031 0.222978 -0.134781
0.0490135 0.218481 -0.13531
0.0490132 0.217985 -0.135813
0.0495118 0.218486 -0.135812
0.0490001 0.223481 -0.135278
0.0489972 0.223984 -0.135775
0.0494958 0.224486 -0.135773
0.0495086 0.218492 -0.136812
0.04901 0.217991 -0.136813
0.0489942 0.224488 -0.136272
0.0489913 0.224991 -0.136769
0.0495054 0.218499 -0.137812
0.0490067 0.217997 -0.137813
0.0489881 0.224997 -0.137769
0.0495022 0.218505 -0.138812
0.0490035 0.218004 -0.138813
0.0489848 0.225004 -0.138768
0.049499 0.218512 -0.139812
0.0490003 0.21801 -0.139813
0.0494803 0.225511 -0.139767
0.0489816 0.22501 -0.139768
0.0494957 0.218518 -0.140812
0.0489971 0.218017 -0.140813
0.0494771 0.225518 -0.140767
0.0489784 0.225016 -0.140768
0.0494925 0.218524 -0.141812
0.0489939 0.218023 -0.141813
0.0494738 0.225524 -0.141767
0.0489752 0.225023 -0.141768
0.0494893 0.218531 -0.142812
0.0489906 0.218029 -0.142813
0.0494706 0.225531 -0.142767
0.048972 0.225029 -0.142768
0.0489877 0.218533 -0.14331
0.048985 0.219533 -0.143304
0.0489821 0.220036 -0.1438
0.0494807 0.220537 -0.143799
0.0489687 0.225036 -0.143768
0.0489791 0.220539 -0.144297
0.0489765 0.221539 -0.144291
0.0489735 0.222042 -0.144788
0.0494722 0.222543 -0.144786
0.0494695 0.223543 -0.14478
0.0489682 0.224042 -0.144775
0.0489685 0.224539 -0.144272
0.0489706 0.222545 -0.145284
0.0489679 0.223545 -0.145278
0.0480231 0.218459 -0.132307
0.0480229 0.217963 -0.13281
0.0485215 0.218464 -0.132809
0.0480205 0.219459 -0.132301
0.0480178 0.220459 -0.132294
0.0480151 0.221459 -0.132288
0.0480122 0.221963 -0.132785
0.0485183 0.21847 -0.133809
0.0480196 0.217969 -0.13381
0.0485076 0.22247 -0.133783
0.048009 0.221969 -0.133785
0.0485151 0.218477 -0.134809
0.0480164 0.217976 -0.13481
0.0485044 0.222477 -0.134783
0.0480057 0.221975 -0.134785
0.0480132 0.217982 -0.13581
0.0480028 0.222479 -0.135281
0.0479999 0.222982 -0.135778
0.0484985 0.223483 -0.135777
0.04801 0.217988 -0.13681
0.0479969 0.223485 -0.136275
0.047994 0.223988 -0.136772
0.0484926 0.224489 -0.13677
0.0480068 0.217995 -0.13781
0.0484894 0.224496 -0.13777
0.0479907 0.223995 -0.137772
0.0480035 0.218001 -0.13881
0.0479878 0.224498 -0.138269
0.0479849 0.225001 -0.138765
0.0480033 0.217504 -0.139313
0.048003 0.217008 -0.139817
0.0485016 0.217509 -0.139815
0.0479816 0.225007 -0.139765
0.0484984 0.217515 -0.140815
0.0479998 0.217014 -0.140816
0.0479811 0.224014 -0.140772
0.0479814 0.224511 -0.140268
0.0484797 0.224515 -0.14077
0.0484952 0.217522 -0.141815
0.0479965 0.21702 -0.141816
0.0484765 0.224521 -0.14177
0.0479779 0.22402 -0.141772
0.048492 0.217528 -0.142815
0.0479933 0.217027 -0.142816
0.0484733 0.224528 -0.14277
0.0479746 0.224027 -0.142772
0.0479904 0.21753 -0.143313
0.0479874 0.218033 -0.14381
0.0484861 0.218534 -0.143808
0.0484834 0.219534 -0.143802
0.0484701 0.224534 -0.14377
0.0479714 0.224033 -0.143772
0.0479845 0.218536 -0.144307
0.0479818 0.219536 -0.1443
0.0479791 0.220536 -0.144294
0.0479762 0.221039 -0.144791
0.0484749 0.221541 -0.144789
0.0479709 0.223039 -0.144778
0.0479711 0.223536 -0.144275
0.0484695 0.223541 -0.144776
0.0479733 0.221543 -0.145288
0.0479706 0.222543 -0.145281
0.0470231 0.218457 -0.132304
0.0470229 0.21796 -0.132807
0.0470205 0.219457 -0.132297
0.0470175 0.21996 -0.132794
0.0475162 0.220461 -0.132793
0.0475135 0.221461 -0.132786
0.0470253 0.216463 -0.133317
0.047025 0.215966 -0.13382
0.0475236 0.216468 -0.133818
0.047521 0.217468 -0.133812
0.0470226 0.217463 -0.13331
0.047513 0.220468 -0.133793
0.0470143 0.219966 -0.133794
0.0475103 0.221468 -0.133786
0.047022 0.21647 -0.134317
0.0470191 0.216973 -0.134813
0.0475178 0.217474 -0.134812
0.0470114 0.22047 -0.134291
0.0475071 0.221474 -0.134786
0.0470084 0.220973 -0.134788
0.0475145 0.217481 -0.135812
0.0470159 0.216979 -0.135813
0.0470055 0.221476 -0.135285
0.0470025 0.221979 -0.135781
0.0475012 0.22248 -0.13578
0.0475113 0.217487 -0.136812
0.0470126 0.216986 -0.136813
0.0469996 0.222482 -0.136278
0.0469966 0.222985 -0.136775
0.0474953 0.223487 -0.136773
0.0475081 0.217493 -0.137812
0.0470094 0.216992 -0.137813
0.0474921 0.223493 -0.137773
0.0469934 0.222992 -0.137775
0.0470092 0.216495 -0.138317
0.0470089 0.215998 -0.13882
0.0475075 0.2165 -0.138818
0.0475049 0.2175 -0.138812
0.0469905 0.223495 -0.138272
0.0469875 0.223998 -0.138768
0.0474862 0.2245 -0.138767
0.0475043 0.216506 -0.139818
0.0470057 0.216005 -0.13982
0.047483 0.224506 -0.139767
0.0469843 0.224005 -0.139768
0.0475011 0.216513 -0.140818
0.0470024 0.216011 -0.14082
0.0469811 0.224011 -0.140768
0.0469995 0.216514 -0.141316
0.0469965 0.217018 -0.141813
0.0469779 0.224017 -0.141768
0.0469963 0.216521 -0.142316
0.046996 0.216024 -0.14282
0.0474947 0.216525 -0.142818
0.0469747 0.224024 -0.142768
0.0469931 0.216527 -0.143316
0.0469901 0.21703 -0.143813
0.0474888 0.217532 -0.143812
0.0469741 0.22303 -0.143775
0.0469744 0.223527 -0.143272
0.0474728 0.223532 -0.143773
0.0469872 0.217534 -0.14431
0.0469845 0.218534 -0.144304
0.0469818 0.219534 -0.144297
0.0469789 0.220037 -0.144794
0.0474775 0.220538 -0.144792
0.0469735 0.222037 -0.144781
0.0469738 0.222533 -0.144278
0.0474722 0.222538 -0.14478
0.0469759 0.22054 -0.145291
0.0469733 0.22154 -0.145284
0.0460285 0.216454 -0.132314
0.0460282 0.215957 -0.132817
0.0465269 0.216459 -0.132815
0.0465242 0.217459 -0.132809
0.0460258 0.217454 -0.132307
0.0460231 0.218454 -0.132301
0.0460202 0.218957 -0.132797
0.0465189 0.219459 -0.132796
0.046025 0.215964 -0.133817
0.0465156 0.219465 -0.133796
0.046017 0.218964 -0.133797
0.0465204 0.216472 -0.134815
0.0460218 0.21597 -0.134817
0.046014 0.219467 -0.134294
0.0460111 0.21997 -0.134791
0.0465098 0.220471 -0.134789
0.0465172 0.216478 -0.135815
0.0460185 0.215977 -0.135817
0.0460081 0.220473 -0.135288
0.0460052 0.220976 -0.135785
0.0465039 0.221478 -0.135783
0.0460183 0.21548 -0.13632
0.046018 0.214983 -0.136823
0.0465167 0.215484 -0.136821
0.046514 0.216484 -0.136815
0.0460023 0.22148 -0.136281
0.0459993 0.221983 -0.136778
0.046498 0.222484 -0.136777
0.0465134 0.215491 -0.137821
0.0460148 0.214989 -0.137823
0.0465108 0.216491 -0.137815
0.0459964 0.222486 -0.137275
0.0459934 0.222989 -0.137772
0.0465102 0.215497 -0.138821
0.0460116 0.214996 -0.138823
0.0464889 0.223497 -0.13877
0.0459902 0.222996 -0.138772
0.046507 0.215504 -0.139821
0.0460083 0.215002 -0.139823
0.0464856 0.223503 -0.13977
0.045987 0.223002 -0.139772
0.0465038 0.21551 -0.140821
0.0460051 0.215009 -0.140823
0.0464824 0.22351 -0.14077
0.0459838 0.223008 -0.140772
0.0465006 0.215516 -0.141821
0.0460019 0.215015 -0.141823
0.0464979 0.216516 -0.141815
0.0464792 0.223516 -0.14177
0.0459805 0.223015 -0.141772
0.0464973 0.215523 -0.142821
0.0459987 0.215021 -0.142823
0.046476 0.223523 -0.14277
0.0459773 0.223021 -0.142772
0.0459957 0.215525 -0.14332
0.0459928 0.216028 -0.143816
0.0464914 0.216529 -0.143815
0.0459768 0.222028 -0.143778
0.0459771 0.222524 -0.143275
0.0464754 0.222529 -0.143776
0.0459898 0.216531 -0.144313
0.0459872 0.217531 -0.144307
0.0459842 0.218034 -0.144804
0.0464829 0.218535 -0.144802
0.0464802 0.219535 -0.144796
0.0459762 0.221034 -0.144784
0.0459765 0.221531 -0.144281
0.0464749 0.221535 -0.144783
0.0459813 0.218537 -0.1453
0.0459786 0.219537 -0.145294
0.0459759 0.220537 -0.145288
0.0450285 0.216451 -0.13231
0.0450282 0.215955 -0.132813
0.0450258 0.217451 -0.132304
0.0450232 0.218451 -0.132297
0.0450202 0.218955 -0.132794
0.0450279 0.215458 -0.133317
0.0450277 0.214961 -0.13382
0.0455263 0.215462 -0.133818
0.045017 0.218961 -0.133794
0.0455231 0.215469 -0.134818
0.0450244 0.214968 -0.13482
0.0455124 0.219469 -0.134793
0.0450138 0.218967 -0.134794
0.0455199 0.215475 -0.135818
0.0450212 0.214974 -0.13582
0.0450108 0.219471 -0.135291
0.0450082 0.220471 -0.135285
0.0450052 0.220974 -0.135781
0.0450209 0.214477 -0.136323
0.0450207 0.21398 -0.136826
0.0455193 0.214482 -0.136825
0.0455007 0.221481 -0.13678
0.045002 0.22098 -0.136781
0.0455161 0.214488 -0.137825
0.0450175 0.213987 -0.137826
0.044999 0.221483 -0.137278
0.0449961 0.221987 -0.137775
0.0454948 0.222488 -0.137773
0.0455129 0.214494 -0.138825
0.0450142 0.213993 -0.138826
0.0449932 0.22249 -0.138272
0.0449902 0.222993 -0.138768
0.0455097 0.214501 -0.139825
0.045011 0.214 -0.139826
0.0449897 0.221999 -0.139775
0.0449899 0.222496 -0.139272
0.0454883 0.222501 -0.139773
0.0455065 0.214507 -0.140825
0.0450078 0.214006 -0.140826
0.0454851 0.222507 -0.140773
0.0449864 0.222006 -0.140775
0.0455032 0.214514 -0.141824
0.0450046 0.214012 -0.141826
0.0454819 0.222513 -0.141773
0.0449832 0.222012 -0.141775
0.0455 0.21452 -0.142824
0.0450013 0.214019 -0.142826
0.0454787 0.22252 -0.142773
0.04498 0.222019 -0.142775
0.0449984 0.214522 -0.143323
0.0449955 0.215025 -0.14382
0.0454941 0.215526 -0.143818
0.0449768 0.222025 -0.143775
0.0449925 0.215528 -0.144316
0.0449898 0.216528 -0.14431
0.0449872 0.217528 -0.144304
0.0449842 0.218031 -0.1448
0.0449789 0.220031 -0.144788
0.0449792 0.220528 -0.144284
0.0454776 0.220533 -0.144786
0.0449765 0.221528 -0.144278
0.0449813 0.218535 -0.145297
0.0449786 0.219535 -0.145291
0.0440285 0.216449 -0.132307
0.0440282 0.215952 -0.13281
0.0440256 0.216952 -0.132804
0.0445242 0.217453 -0.132802
0.0445216 0.218453 -0.132796
0.0440306 0.214455 -0.13332
0.0440303 0.213958 -0.133823
0.044529 0.21446 -0.133821
0.0440279 0.215455 -0.133313
0.044521 0.21746 -0.133802
0.0440223 0.216958 -0.133804
0.0445183 0.21846 -0.133796
0.0440301 0.213462 -0.134326
0.0440298 0.212965 -0.134829
0.0445285 0.213466 -0.134828
0.0445258 0.214466 -0.134821
0.0440194 0.217462 -0.134301
0.0440167 0.218462 -0.134294
0.0440138 0.218965 -0.134791
0.0445252 0.213473 -0.135828
0.0440266 0.212971 -0.135829
0.0445226 0.214473 -0.135821
0.0440108 0.219468 -0.135288
0.0440079 0.219971 -0.135785
0.0445066 0.220472 -0.135783
0.044522 0.213479 -0.136828
0.0440233 0.212978 -0.136829
0.0445033 0.220479 -0.136783
0.0440047 0.219977 -0.136785
0.0445188 0.213485 -0.137828
0.0440201 0.212984 -0.137829
0.0440017 0.220481 -0.137281
0.0439988 0.220984 -0.137778
0.0444974 0.221485 -0.137777
0.0445156 0.213492 -0.138828
0.0440169 0.21299 -0.138829
0.0444942 0.221492 -0.138777
0.0439956 0.22099 -0.138778
0.0444916 0.222492 -0.13877
0.0445123 0.213498 -0.139828
0.0440137 0.212997 -0.139829
0.044491 0.221498 -0.139776
0.0439923 0.220997 -0.139778
0.0445091 0.213505 -0.140828
0.0440105 0.213003 -0.140829
0.0444878 0.221504 -0.140776
0.0439891 0.221003 -0.140778
0.0445059 0.213511 -0.141828
0.0440072 0.21301 -0.141829
0.0444846 0.221511 -0.141776
0.0439859 0.221009 -0.141778
0.0445027 0.213517 -0.142828
0.044004 0.213016 -0.142829
0.0444813 0.221517 -0.142776
0.0439827 0.221016 -0.142778
0.0440011 0.213519 -0.143326
0.0439981 0.214022 -0.143823
0.0444968 0.214524 -0.143821
0.0444781 0.221524 -0.143776
0.0439795 0.221022 -0.143778
0.0439952 0.214526 -0.14432
0.0439925 0.215526 -0.144313
0.0439896 0.216029 -0.14481
0.0444882 0.21653 -0.144808
0.0444856 0.21753 -0.144802
0.0439789 0.220029 -0.144784
0.0439792 0.220525 -0.144281
0.0439866 0.216532 -0.145307
0.043984 0.217532 -0.1453
0.0439813 0.218532 -0.145294
0.0439786 0.219532 -0.145288
0.0430338 0.214446 -0.132317
0.0430336 0.213949 -0.13282
0.0435322 0.214451 -0.132818
0.0435296 0.215451 -0.132812
0.0430312 0.215446 -0.13231
0.0430285 0.216446 -0.132304
0.0430256 0.216949 -0.132801
0.0430333 0.213453 -0.133323
0.043033 0.212956 -0.133826
0.0435317 0.213457 -0.133825
0.0430223 0.216956 -0.133801
0.0430327 0.212459 -0.134329
0.0430325 0.211962 -0.134833
0.0435311 0.212464 -0.134831
0.0430194 0.217459 -0.134297
0.0430165 0.217962 -0.134794
0.0435151 0.218463 -0.134793
0.0435279 0.21247 -0.135831
0.0430292 0.211969 -0.135833
0.0430135 0.218465 -0.135291
0.0430106 0.218968 -0.135788
0.0435092 0.21947 -0.135786
0.0435247 0.212476 -0.136831
0.043026 0.211975 -0.136833
0.043506 0.219476 -0.136786
0.0430073 0.218975 -0.136788
0.0430257 0.211478 -0.137336
0.0430255 0.210981 -0.137839
0.0435241 0.211483 -0.137837
0.0435215 0.212483 -0.137831
0.0430044 0.219478 -0.137285
0.0430015 0.219981 -0.137781
0.0435001 0.220483 -0.13778
0.0435209 0.211489 -0.138837
0.0430223 0.210988 -0.138839
0.0435182 0.212489 -0.138831
0.0434969 0.220489 -0.13878
0.0429982 0.219988 -0.138781
0.0435177 0.211496 -0.139837
0.043019 0.210994 -0.139839
0.043515 0.212496 -0.139831
0.0434937 0.220495 -0.13978
0.042995 0.219994 -0.139781
0.0430161 0.211497 -0.140336
0.0430131 0.212001 -0.140833
0.0435118 0.212502 -0.140831
0.0434905 0.220502 -0.14078
0.0429918 0.22 -0.140781
0.0435086 0.212508 -0.141831
0.0430099 0.212007 -0.141832
0.0434872 0.220508 -0.14178
0.0429886 0.220007 -0.141781
0.0435054 0.212515 -0.142831
0.0430067 0.212013 -0.142832
0.043484 0.220515 -0.14278
0.0429854 0.220013 -0.142781
0.0430038 0.212517 -0.143329
0.0430008 0.21302 -0.143826
0.0434995 0.213521 -0.143824
0.0434808 0.220521 -0.14378
0.0429821 0.22002 -0.143781
0.0429979 0.213523 -0.144323
0.0429952 0.214523 -0.144316
0.0429923 0.215026 -0.144813
0.0434909 0.215527 -0.144812
0.0429816 0.219026 -0.144788
0.0429819 0.219523 -0.144284
0.0434802 0.219527 -0.144786
0.0429893 0.215529 -0.14531
0.0429866 0.216529 -0.145304
0.042984 0.217529 -0.145297
0.0429813 0.218529 -0.145291
0.0420339 0.214443 -0.132314
0.0420336 0.213947 -0.132817
0.0420309 0.214947 -0.13281
0.0425296 0.215448 -0.132809
0.0425269 0.216448 -0.132802
0.042036 0.21245 -0.133326
0.0420357 0.211953 -0.133829
0.0425344 0.212454 -0.133828
0.0420333 0.21345 -0.13332
0.042028 0.21545 -0.133307
0.0425237 0.216454 -0.133802
0.042025 0.215953 -0.133804
0.0420354 0.211456 -0.134333
0.0420351 0.21096 -0.134836
0.0425338 0.211461 -0.134834
0.0420221 0.216456 -0.134301
0.0420191 0.216959 -0.134797
0.0425178 0.217461 -0.134796
0.0425306 0.211467 -0.135834
0.0420319 0.210966 -0.135836
0.0425146 0.217467 -0.135796
0.0420159 0.216966 -0.135797
0.0425119 0.218467 -0.135789
0.0425274 0.211474 -0.136834
0.0420287 0.210972 -0.136836
0.042013 0.217469 -0.136294
0.0425087 0.218474 -0.136789
0.04201 0.217972 -0.136791
0.0420284 0.210476 -0.137339
0.0420281 0.209979 -0.137842
0.0425268 0.21048 -0.137841
0.0420071 0.218475 -0.137288
0.0420041 0.218979 -0.137785
0.0425028 0.21948 -0.137783
0.0425236 0.210486 -0.138841
0.0420249 0.209985 -0.138842
0.0424996 0.219486 -0.138783
0.0420009 0.218985 -0.138785
0.0425204 0.210493 -0.139841
0.0420217 0.209992 -0.139842
0.0424964 0.219493 -0.139783
0.0419977 0.218991 -0.139784
0.0425172 0.210499 -0.140841
0.0420185 0.209998 -0.140842
0.0425145 0.211499 -0.140834
0.0424931 0.219499 -0.140783
0.0419945 0.218998 -0.140784
0.0420155 0.210501 -0.141339
0.0420126 0.211004 -0.141836
0.0425113 0.211506 -0.141834
0.0419915 0.219501 -0.141281
0.0419886 0.220004 -0.141778
0.042508 0.211512 -0.142834
0.0420094 0.211011 -0.142836
0.0419854 0.220011 -0.142778
0.0420064 0.211514 -0.143332
0.0420035 0.212017 -0.143829
0.0425022 0.212518 -0.143828
0.0419875 0.218017 -0.143791
0.0419878 0.218514 -0.143288
0.0424861 0.218518 -0.143789
0.0419851 0.219514 -0.143281
0.0424835 0.219518 -0.143783
0.0420005 0.21252 -0.144326
0.0419979 0.21352 -0.14432
0.0419952 0.21452 -0.144313
0.0419923 0.215023 -0.14481
0.0424829 0.218525 -0.144789
0.0419843 0.218023 -0.144791
0.0419893 0.215527 -0.145307
0.0419867 0.216527 -0.1453
0.041984 0.217527 -0.145294
0.0410339 0.214441 -0.13231
0.0410336 0.213944 -0.132813
0.0410309 0.214944 -0.132807
0.0410386 0.211447 -0.13333
0.0410384 0.21095 -0.133833
0.041537 0.211452 -0.133831
0.041036 0.212447 -0.133323
0.0410333 0.213447 -0.133317
0.0415264 0.215452 -0.133805
0.0410277 0.21495 -0.133807
0.0410381 0.210454 -0.134336
0.0410378 0.209957 -0.134839
0.0415365 0.210458 -0.134837
0.0410248 0.215454 -0.134304
0.0410218 0.215957 -0.134801
0.0415205 0.216458 -0.134799
0.0415333 0.210465 -0.135837
0.0410346 0.209963 -0.135839
0.0415173 0.216464 -0.135799
0.0410186 0.215963 -0.135801
0.04153 0.210471 -0.136837
0.0410314 0.20997 -0.136839
0.0410156 0.216466 -0.136297
0.0410127 0.21697 -0.136794
0.0415114 0.217471 -0.136793
0.0410282 0.209976 -0.137839
0.0410098 0.217473 -0.137291
0.0410068 0.217976 -0.137788
0.0415055 0.218477 -0.137786
0.0410249 0.209982 -0.138839
0.0415023 0.218484 -0.138786
0.0410036 0.217982 -0.138788
0.0410217 0.209989 -0.139839
0.0410006 0.218485 -0.139284
0.0409977 0.218989 -0.139781
0.0410185 0.209995 -0.140839
0.0409945 0.218995 -0.140781
0.0415139 0.210503 -0.141837
0.0410153 0.210002 -0.141839
0.0414899 0.219503 -0.14178
0.0409913 0.219001 -0.141781
0.0415107 0.210509 -0.142837
0.0410121 0.210008 -0.142839
0.0409907 0.218008 -0.142788
0.040991 0.218505 -0.142284
0.0414894 0.218509 -0.142786
0.0414867 0.219509 -0.14278
0.0410091 0.210511 -0.143336
0.0410062 0.211014 -0.143832
0.0415048 0.211516 -0.143831
0.0409875 0.218014 -0.143788
0.0410032 0.211518 -0.144329
0.0410003 0.212021 -0.144826
0.0414989 0.212522 -0.144824
0.0414963 0.213522 -0.144818
0.0414936 0.214522 -0.144812
0.0409869 0.217021 -0.144794
0.0409872 0.217517 -0.144291
0.0414856 0.217522 -0.144792
0.0409973 0.212524 -0.145323
0.0409947 0.213524 -0.145316
0.040992 0.214524 -0.14531
0.0409893 0.215524 -0.145304
0.0409867 0.216524 -0.145297
0.0405323 0.214443 -0.132809
0.0400387 0.211445 -0.133326
0.0400384 0.210948 -0.133829
0.040036 0.212445 -0.13332
0.0400333 0.213445 -0.133313
0.040529 0.214449 -0.133809
0.0400304 0.213948 -0.13381
0.0400381 0.210451 -0.134333
0.0400378 0.209954 -0.134836
0.0400274 0.214451 -0.134307
0.0400245 0.214954 -0.134804
0.0405231 0.215455 -0.134802
0.0400376 0.209457 -0.135339
0.0400373 0.208961 -0.135842
0.0405359 0.209462 -0.135841
0.0400215 0.215457 -0.135301
0.0400186 0.21596 -0.135797
0.0405327 0.209468 -0.136841
0.0400341 0.208967 -0.136842
0.040514 0.216468 -0.136796
0.0400154 0.215967 -0.136797
0.0405295 0.209475 -0.137841
0.0400308 0.208973 -0.137842
0.0400124 0.21647 -0.137294
0.0400095 0.216973 -0.137791
0.0405082 0.217475 -0.137789
0.0405263 0.209481 -0.138841
0.0400276 0.20898 -0.138842
0.0400065 0.217476 -0.138288
0.0400036 0.21798 -0.138785
0.0405231 0.209488 -0.139841
0.0400244 0.208986 -0.139842
0.040499 0.218487 -0.139783
0.0400004 0.217986 -0.139784
0.0405198 0.209494 -0.140841
0.0400212 0.208993 -0.140842
0.0404958 0.218494 -0.140783
0.0399972 0.217992 -0.140784
0.0405166 0.2095 -0.14184
0.040018 0.208999 -0.141842
0.0404926 0.2185 -0.141783
0.0399939 0.217999 -0.141784
0.0405134 0.209507 -0.14284
0.0400147 0.209005 -0.142842
0.0399907 0.218005 -0.142784
0.0400118 0.209509 -0.143339
0.0400088 0.210012 -0.143836
0.0405075 0.210513 -0.143834
0.0399902 0.217012 -0.143791
0.0399904 0.217508 -0.143288
0.0404888 0.217513 -0.143789
0.0400059 0.210515 -0.144332
0.040003 0.211018 -0.144829
0.0405016 0.211519 -0.144828
0.0399869 0.217018 -0.144791
0.04 0.211521 -0.145326
0.0399973 0.212521 -0.14532
0.0399947 0.213521 -0.145313
0.0399917 0.214024 -0.14581
0.0404904 0.214526 -0.145808
0.0399891 0.215024 -0.145804
0.0399893 0.215521 -0.1453
0.0399867 0.216521 -0.145294
0.0399888 0.214528 -0.146307
0.0390387 0.211442 -0.133323
0.0390384 0.210945 -0.133826
0.039036 0.212442 -0.133317
0.0390331 0.212945 -0.133813
0.0395317 0.213446 -0.133812
0.0390408 0.209448 -0.134336
0.0390405 0.208952 -0.134839
0.0395392 0.209453 -0.134837
0.0390381 0.210448 -0.134329
0.0390301 0.213448 -0.13431
0.0390272 0.213951 -0.134807
0.0395258 0.214453 -0.134805
0.0390373 0.208958 -0.135839
0.0390242 0.214455 -0.135304
0.0390213 0.214958 -0.135801
0.0395199 0.215459 -0.135799
0.039037 0.208461 -0.136342
0.0390367 0.207964 -0.136845
0.0395354 0.208466 -0.136844
0.0390183 0.215461 -0.136297
0.0390154 0.215964 -0.136794
0.0395322 0.208472 -0.137844
0.0390335 0.207971 -0.137845
0.0390124 0.216467 -0.137291
0.0390095 0.216971 -0.137788
0.039529 0.208478 -0.138844
0.0390303 0.207977 -0.138845
0.0395049 0.217478 -0.138786
0.0390063 0.216977 -0.138788
0.0395257 0.208485 -0.139844
0.0390271 0.207984 -0.139845
0.0390033 0.21748 -0.139284
0.0390004 0.217983 -0.139781
0.0395225 0.208491 -0.140844
0.0390239 0.20799 -0.140845
0.0389972 0.21799 -0.140781
0.0395193 0.208498 -0.141844
0.0390206 0.207996 -0.141845
0.0389939 0.217996 -0.141781
0.0395161 0.208504 -0.142844
0.0390174 0.208003 -0.142845
0.0389907 0.218002 -0.142781
0.0390145 0.208506 -0.143342
0.0390115 0.209009 -0.143839
0.0395102 0.20951 -0.143837
0.0389902 0.217009 -0.143788
0.0389905 0.217506 -0.143284
0.0390086 0.209512 -0.144336
0.0390056 0.210015 -0.144832
0.0395043 0.210517 -0.144831
0.0389896 0.216015 -0.144794
0.0389899 0.216512 -0.144291
0.0394883 0.216517 -0.144792
0.0390027 0.210519 -0.145329
0.039 0.211519 -0.145323
0.0389974 0.212519 -0.145316
0.0389944 0.213022 -0.145813
0.0394931 0.213523 -0.145812
0.0389891 0.215022 -0.1458
0.0389893 0.215519 -0.145297
0.0389915 0.213525 -0.14631
0.0389888 0.214525 -0.146304
0.0385371 0.211444 -0.133821
0.0385344 0.212444 -0.133815
0.0380408 0.209446 -0.134333
0.0380405 0.208949 -0.134836
0.0380381 0.210446 -0.134326
0.0380355 0.211446 -0.13432
0.0380328 0.212446 -0.134313
0.0380298 0.212949 -0.13481
0.0385285 0.21345 -0.134809
0.0380402 0.208452 -0.135339
0.03804 0.207955 -0.135842
0.0385386 0.208457 -0.135841
0.0380269 0.213452 -0.135307
0.038024 0.213955 -0.135804
0.0385226 0.214456 -0.135802
0.0380397 0.207458 -0.136345
0.0380394 0.206962 -0.136849
0.0385381 0.207463 -0.136847
0.038021 0.214458 -0.136301
0.0380181 0.214961 -0.136797
0.0385167 0.215463 -0.136796
0.0385349 0.207469 -0.137847
0.0380362 0.206968 -0.137849
0.0380151 0.215465 -0.137294
0.0380122 0.215968 -0.137791
0.0385108 0.216469 -0.137789
0.0385316 0.207476 -0.138847
0.038033 0.206974 -0.138849
0.0380092 0.216471 -0.138288
0.0380063 0.216974 -0.138785
0.0385284 0.207482 -0.139847
0.0380297 0.206981 -0.139849
0.0385017 0.217482 -0.139783
0.0380031 0.216981 -0.139784
0.0385252 0.207489 -0.140847
0.0380265 0.206987 -0.140849