<VTKFile type="UnstructuredGrid" version="0.1" byte_order="BigEndian">
  <UnstructuredGrid>
    <Piece NumberOfPoints="23102" NumberOfCells="46208">
      <PointData>
        <DataArray type="Float64" Name="position" NumberOfComponents="3" format="ascii">
0.0573565 0.223462 -0.13541
0.0573531 0.222965 -0.135912
0.0578549 0.223463 -0.135911
0.0573568 0.223965 -0.135907
0.0578519 0.223468 -0.136911
0.0573501 0.22297 -0.136912
0.0573537 0.22397 -0.136907
0.0573467 0.222472 -0.137414
0.0573434 0.221975 -0.137917
0.0578452 0.222473 -0.137916
0.0578488 0.223473 -0.137911
0.0573507 0.223975 -0.137907
0.0578421 0.222478 -0.138916
0.0573403 0.22198 -0.138917
0.0578458 0.223478 -0.138911
0.0573476 0.22398 -0.138907
0.0578391 0.222483 -0.139916
0.0573373 0.221985 -0.139917
0.0578427 0.223483 -0.139911
0.0573445 0.223985 -0.139907
0.0573375 0.222487 -0.140414
0.0573412 0.223487 -0.140409
0.0563492 0.221466 -0.135416
0.0563458 0.220969 -0.135919
0.0568477 0.221467 -0.135918
0.0568513 0.222467 -0.135913
0.0563528 0.222466 -0.135411
0.0563565 0.223466 -0.135406
0.0563568 0.223969 -0.135904
0.0568446 0.221472 -0.136918
0.0563428 0.220974 -0.136919
0.0568483 0.222472 -0.136913
0.0563537 0.223973 -0.136904
0.0568415 0.221477 -0.137918
0.0563397 0.220979 -0.137919
0.0563507 0.223978 -0.137904
0.0568385 0.221482 -0.138918
0.0563367 0.220984 -0.138919
0.0563476 0.223983 -0.138904
0.0568354 0.221487 -0.139918
0.0563336 0.220988 -0.139919
0.0563446 0.223988 -0.139904
0.0563339 0.221491 -0.140416
0.0563342 0.221993 -0.140914
0.056836 0.222492 -0.140913
0.0568397 0.223492 -0.140908
0.0563415 0.223993 -0.140904
0.056833 0.222497 -0.141913
0.0563311 0.221998 -0.141914
0.0568366 0.223497 -0.141908
0.0563384 0.223998 -0.141904
0.0568299 0.222502 -0.142913
0.0563281 0.222003 -0.142914
0.0563351 0.223501 -0.142406
0.0563317 0.223003 -0.142909
0.0563284 0.222506 -0.143411
0.0553456 0.22047 -0.135418
0.0553422 0.219972 -0.135921
0.055844 0.22047 -0.13592
0.0553492 0.22147 -0.135413
0.0553529 0.22247 -0.135408
0.0553565 0.22347 -0.135403
0.0553568 0.223972 -0.135901
0.055841 0.220475 -0.13692
0.0553391 0.219977 -0.136921
0.0553537 0.223977 -0.136901
0.0558379 0.22048 -0.13792
0.0553361 0.219982 -0.137921
0.0553507 0.223982 -0.137901
0.0558349 0.220485 -0.13892
0.055333 0.219987 -0.138921
0.0553476 0.223987 -0.138901
0.0558318 0.22049 -0.13992
0.05533 0.219992 -0.139921
0.0553446 0.223992 -0.139901
0.0553303 0.220495 -0.140418
0.0553306 0.220997 -0.140916
0.0558324 0.221495 -0.140915
0.0553415 0.223997 -0.140901
0.0558293 0.2215 -0.141915
0.0553275 0.221002 -0.141916
0.0553385 0.224002 -0.141901
0.0553278 0.221505 -0.142413
0.0553281 0.222007 -0.142911
0.0558336 0.223505 -0.142905
0.0553354 0.224007 -0.142901
0.0553284 0.22251 -0.143408
0.055332 0.223509 -0.143403
0.0543456 0.220473 -0.135415
0.0543422 0.219976 -0.135918
0.0543492 0.221473 -0.13541
0.0543529 0.222473 -0.135405
0.0543532 0.222976 -0.135903
0.054855 0.223474 -0.135902
0.0543392 0.219981 -0.136918
0.0543535 0.223478 -0.1364
0.0543538 0.223981 -0.136898
0.0543358 0.219483 -0.13742
0.0543325 0.218986 -0.137923
0.0548343 0.219484 -0.137922
0.0543507 0.223986 -0.137898
0.0543327 0.219488 -0.13842
0.054333 0.219991 -0.138918
0.0543476 0.223991 -0.138898
0.0543297 0.219493 -0.13942
0.0543263 0.218996 -0.139923
0.0548282 0.219494 -0.139922
0.0543446 0.223996 -0.139898
0.0543266 0.219498 -0.14042
0.0543269 0.220001 -0.140918
0.0548287 0.220499 -0.140917
0.0543415 0.224001 -0.140898
0.0548257 0.220504 -0.141917
0.0543239 0.220006 -0.141918
0.0543385 0.224006 -0.141898
0.0543242 0.220508 -0.142415
0.0543245 0.221011 -0.142913
0.0548263 0.221509 -0.142912
0.0543354 0.224011 -0.142898
0.0543248 0.221513 -0.14341
0.0543251 0.222016 -0.143908
0.0548269 0.222514 -0.143907
0.0548305 0.223514 -0.143902
0.0543324 0.224016 -0.143898
0.0543254 0.222518 -0.144405
0.054329 0.223518 -0.1444
0.0533486 0.220472 -0.134412
0.0533453 0.219975 -0.134915
0.0538471 0.220473 -0.134914
0.0538508 0.221473 -0.134909
0.0533523 0.221472 -0.134407
0.0533526 0.221974 -0.134905
0.0533419 0.219477 -0.135417
0.0533386 0.218979 -0.13592
0.0538404 0.219478 -0.135919
0.0533529 0.222477 -0.135402
0.0533532 0.222979 -0.1359
0.0538373 0.219483 -0.136919
0.0533355 0.218984 -0.13692
0.0533535 0.223482 -0.136397
0.0533538 0.223984 -0.136895
0.0533325 0.218989 -0.13792
0.0533507 0.223989 -0.137895
0.0538312 0.219493 -0.138919
0.0533294 0.218994 -0.13892
0.0533477 0.223994 -0.138895
0.0533263 0.218999 -0.139919
0.0533446 0.223999 -0.139895
0.0538251 0.219503 -0.140919
0.0533233 0.219004 -0.140919
0.0533415 0.224004 -0.140895
0.0538221 0.219508 -0.141919
0.0533202 0.219009 -0.141919
0.0533385 0.224009 -0.141895
0.053819 0.219513 -0.142918
0.0533172 0.219014 -0.142919
0.0538226 0.220513 -0.142914
0.0533354 0.224014 -0.142895
0.0533175 0.219517 -0.143417
0.0533211 0.220517 -0.143412
0.0533214 0.221019 -0.143909
0.0538232 0.221517 -0.143909
0.0533324 0.224019 -0.143895
0.0533217 0.221522 -0.144407
0.0533254 0.222522 -0.144402
0.053329 0.223522 -0.144397
0.0523481 0.219471 -0.133414
0.0523447 0.218973 -0.133917
0.0528465 0.219471 -0.133916
0.0528502 0.220471 -0.133911
0.0523517 0.220471 -0.133409
0.052352 0.220973 -0.133907
0.0528435 0.219476 -0.134916
0.0523416 0.218978 -0.134917
0.0523523 0.221476 -0.134404
0.0523526 0.221978 -0.134902
0.0523346 0.217481 -0.135424
0.0523313 0.216983 -0.135926
0.0528331 0.217481 -0.135925
0.0528368 0.218481 -0.135921
0.0523383 0.218481 -0.135419
0.0523529 0.222481 -0.135399
0.0523532 0.222983 -0.135897
0.0523316 0.217486 -0.136424
0.0523319 0.217988 -0.136921
0.0528337 0.218486 -0.13692
0.0528519 0.223486 -0.136896
0.0523501 0.222988 -0.136897
0.0528306 0.218491 -0.13792
0.0523288 0.217993 -0.137921
0.0528489 0.223491 -0.137896
0.0523471 0.222993 -0.137897
0.0528276 0.218496 -0.13892
0.0523258 0.217998 -0.138921
0.0523474 0.223495 -0.138394
0.0523477 0.223998 -0.138892
0.0523224 0.217501 -0.139424
0.0523191 0.217003 -0.139926
0.0528209 0.217501 -0.139925
0.0528245 0.218501 -0.13992
0.0523446 0.224003 -0.139892
0.0523194 0.217506 -0.140424
0.0523197 0.218008 -0.140921
0.0528215 0.218506 -0.14092
0.0523415 0.224008 -0.140892
0.0528184 0.218511 -0.14192
0.0523166 0.218013 -0.141921
0.0523385 0.224013 -0.141892
0.0528154 0.218516 -0.14292
0.0523135 0.218018 -0.142921
0.0523354 0.224018 -0.142892
0.0523138 0.21852 -0.143419
0.0523175 0.21952 -0.143414
0.0523178 0.220023 -0.143911
0.0528196 0.220521 -0.14391
0.0523324 0.224023 -0.143892
0.0523181 0.220525 -0.144409
0.0523217 0.221525 -0.144404
0.0523254 0.222525 -0.144399
0.052329 0.223525 -0.144394
0.0513444 0.218474 -0.133416
0.0513411 0.217977 -0.133918
0.0518429 0.218475 -0.133917
0.0513481 0.219474 -0.133411
0.0513517 0.220474 -0.133406
0.051352 0.220977 -0.133904
0.0513377 0.217479 -0.134421
0.0513344 0.216982 -0.134923
0.0518362 0.21748 -0.134922
0.0518398 0.21848 -0.134917
0.0513523 0.221479 -0.134401
0.0513526 0.221982 -0.134899
0.0513313 0.216987 -0.135923
0.0513529 0.222484 -0.135396
0.0513532 0.222987 -0.135894
0.0518301 0.21749 -0.136922
0.0513282 0.216992 -0.136923
0.0513501 0.222992 -0.136894
0.051827 0.217495 -0.137922
0.0513252 0.216997 -0.137923
0.0513471 0.222997 -0.137893
0.051824 0.2175 -0.138922
0.0513221 0.217002 -0.138923
0.0518458 0.2235 -0.138893
0.051344 0.223002 -0.138893
0.0513191 0.217007 -0.139923
0.0513443 0.223504 -0.139391
0.0513446 0.224007 -0.139888
0.0518178 0.21751 -0.140922
0.051316 0.217012 -0.140923
0.0513416 0.224012 -0.140888
0.0518148 0.217515 -0.141922
0.051313 0.217017 -0.141923
0.0513385 0.224017 -0.141888
0.0518117 0.21752 -0.142922
0.0513099 0.217022 -0.142923
0.0513354 0.224022 -0.142888
0.0513102 0.217524 -0.143421
0.0513138 0.218524 -0.143416
0.0513141 0.219027 -0.143913
0.051816 0.219525 -0.143912
0.0513287 0.223027 -0.143893
0.0513321 0.223524 -0.143391
0.0518306 0.223525 -0.143892
0.0513144 0.219529 -0.144411
0.0513181 0.220529 -0.144406
0.0513217 0.221529 -0.144401
0.0513254 0.222529 -0.144396
0.0503438 0.217473 -0.132418
0.0503405 0.216975 -0.13292
0.0508423 0.217474 -0.132919
0.050846 0.218474 -0.132914
0.0503475 0.218473 -0.132413
0.0508496 0.219474 -0.132909
0.0503511 0.219473 -0.132408
0.0503514 0.219975 -0.132905
0.0508392 0.217479 -0.133919
0.0503374 0.21698 -0.13392
0.0503517 0.220478 -0.133403
0.050352 0.22098 -0.1339
0.0503344 0.216985 -0.13492
0.0508508 0.221484 -0.134899
0.050349 0.220985 -0.1349
0.050331 0.216488 -0.135423
0.0503277 0.21599 -0.135925
0.0508295 0.216489 -0.135924
0.0503493 0.221488 -0.135398
0.0503496 0.22199 -0.135895
0.0508514 0.222489 -0.135894
0.0508264 0.216494 -0.136924
0.0503246 0.215995 -0.136925
0.0503499 0.222493 -0.136393
0.0503502 0.222995 -0.13689
0.0508234 0.216499 -0.137924
0.0503216 0.216 -0.137925
0.0503471 0.223 -0.13789
0.0508203 0.216504 -0.138924
0.0503185 0.216005 -0.138925
0.050344 0.223005 -0.13889
0.0508173 0.216509 -0.139924
0.0503154 0.21601 -0.139925
0.0508428 0.223508 -0.139889
0.050341 0.22301 -0.13989
0.0508142 0.216514 -0.140924
0.0503124 0.216015 -0.140925
0.0508397 0.223513 -0.140889
0.0503379 0.223015 -0.14089
0.0508111 0.216519 -0.141924
0.0503093 0.21602 -0.141925
0.0508367 0.223518 -0.141889
0.0503349 0.22302 -0.14189
0.0508081 0.216523 -0.142924
0.0503063 0.216025 -0.142925
0.0508336 0.223523 -0.142889
0.0503318 0.223025 -0.14289
0.0503066 0.216528 -0.143423
0.0503102 0.217528 -0.143418
0.0503105 0.21803 -0.143915
0.0508123 0.218528 -0.143914
0.0503287 0.22303 -0.14389
0.0503108 0.218533 -0.144413
0.0503145 0.219533 -0.144408
0.0503147 0.220035 -0.144905
0.0508166 0.220533 -0.144904
0.0508202 0.221533 -0.144899
0.050322 0.222035 -0.144895
0.0503254 0.222533 -0.144393
0.050315 0.220538 -0.145403
0.0503187 0.221538 -0.145398
0.0493402 0.216477 -0.13242
0.0493368 0.215979 -0.132922
0.0498387 0.216477 -0.132921
0.0493439 0.217477 -0.132415
0.0493475 0.218477 -0.13241
0.0493511 0.219477 -0.132405
0.0493514 0.219979 -0.132902
0.0498356 0.216482 -0.133921
0.0493338 0.215984 -0.133922
0.0498502 0.220482 -0.133901
0.0493484 0.219984 -0.133902
0.0498326 0.216487 -0.134921
0.0493307 0.215989 -0.134922
0.0498471 0.220487 -0.134901
0.0493453 0.219989 -0.134902
0.0493277 0.215994 -0.135922
0.0493456 0.220492 -0.1354
0.0493459 0.220994 -0.135897
0.0498477 0.221492 -0.135896
0.0493246 0.215999 -0.136922
0.0493462 0.221496 -0.136395
0.0493465 0.221999 -0.136892
0.0498483 0.222497 -0.136891
0.0493216 0.216004 -0.137922
0.0498453 0.222502 -0.137891
0.0493435 0.222004 -0.137892
0.0493185 0.216009 -0.138922
0.0493438 0.222506 -0.13839
0.049344 0.223009 -0.138887
0.0493152 0.215512 -0.139425
0.0493118 0.215014 -0.139927
0.0498136 0.215512 -0.139926
0.049341 0.223014 -0.139887
0.0498106 0.215517 -0.140926
0.0493087 0.215019 -0.140927
0.0493343 0.222019 -0.140892
0.0493376 0.222516 -0.14039
0.0498361 0.222517 -0.140891
0.0498075 0.215522 -0.141926
0.0493057 0.215024 -0.141927
0.049833 0.222522 -0.141891
0.0493312 0.222024 -0.141892
0.0498044 0.215527 -0.142926
0.0493026 0.215029 -0.142927
0.04983 0.222527 -0.142891
0.0493282 0.222029 -0.142892
0.0493029 0.215531 -0.143425
0.0493032 0.216034 -0.143922
0.049805 0.216532 -0.143921
0.0498087 0.217532 -0.143916
0.0498269 0.222532 -0.143891
0.0493251 0.222034 -0.143892
0.0493035 0.216536 -0.14442
0.0493072 0.217536 -0.144415
0.0493108 0.218536 -0.14441
0.0493111 0.219039 -0.144907
0.0498129 0.219537 -0.144906
0.0493184 0.221039 -0.144897
0.0493218 0.221536 -0.144395
0.0498202 0.221537 -0.144896
0.0493114 0.219541 -0.145405
0.0493151 0.220541 -0.1454
0.0483402 0.21648 -0.132417
0.0483369 0.215983 -0.132919
0.0483439 0.21748 -0.132412
0.0483442 0.217983 -0.132909
0.048846 0.218481 -0.132908
0.0488496 0.219481 -0.132903
0.0483299 0.214485 -0.133427
0.0483265 0.213988 -0.133929
0.0488283 0.214486 -0.133928
0.048832 0.215486 -0.133923
0.0483335 0.215485 -0.133422
0.0488429 0.218486 -0.133908
0.0483411 0.217988 -0.133909
0.0488466 0.219486 -0.133903
0.0483268 0.21449 -0.134427
0.0483271 0.214993 -0.134924
0.0488289 0.215491 -0.134923
0.0483414 0.21849 -0.134407
0.0488435 0.219491 -0.134903
0.0483417 0.218993 -0.134904
0.0488259 0.215496 -0.135923
0.048324 0.214998 -0.135924
0.048342 0.219495 -0.135402
0.0483423 0.219998 -0.135899
0.0488441 0.220496 -0.135898
0.0488228 0.215501 -0.136923
0.048321 0.215003 -0.136924
0.0483426 0.2205 -0.136397
0.0483429 0.221003 -0.136894
0.0488447 0.221501 -0.136893
0.0488197 0.215506 -0.137923
0.0483179 0.215008 -0.137924
0.0488416 0.221506 -0.137893
0.0483398 0.221008 -0.137894
0.0483146 0.21451 -0.138427
0.0483112 0.214013 -0.138929
0.048813 0.214511 -0.138928
0.0488167 0.215511 -0.138923
0.0483401 0.22151 -0.138392
0.0483404 0.222013 -0.138889
0.0488422 0.222511 -0.138888
0.04881 0.214516 -0.139928
0.0483082 0.214018 -0.139929
0.0488392 0.222516 -0.139888
0.0483374 0.222018 -0.139889
0.0488069 0.214521 -0.140928
0.0483051 0.214023 -0.140929
0.0483343 0.222023 -0.140889
0.0483054 0.214525 -0.141426
0.0483057 0.215028 -0.141924
0.0483312 0.222027 -0.141889
0.0483023 0.21453 -0.142426
0.048299 0.214033 -0.142929
0.0488008 0.214531 -0.142928
0.0483282 0.222032 -0.142889
0.0482993 0.214535 -0.143426
0.0482996 0.215038 -0.143924
0.0488014 0.215536 -0.143923
0.0483215 0.221037 -0.143894
0.0483248 0.221535 -0.143392
0.0488233 0.221536 -0.143893
0.0482999 0.21554 -0.144421
0.0483035 0.21654 -0.144416
0.0483072 0.21754 -0.144411
0.0483075 0.218043 -0.144909
0.0488093 0.218541 -0.144908
0.0483148 0.220042 -0.144899
0.0483181 0.22054 -0.144397
0.0488166 0.220541 -0.144898
0.0483078 0.218545 -0.145407
0.0483114 0.219545 -0.145402
0.0473329 0.214484 -0.132424
0.0473296 0.213986 -0.132926
0.0478314 0.214485 -0.132925
0.047835 0.215485 -0.13292
0.0473366 0.215484 -0.132419
0.0473402 0.216484 -0.132414
0.0473405 0.216986 -0.132911
0.0478423 0.217485 -0.13291
0.0473265 0.213991 -0.133926
0.0478393 0.21749 -0.13391
0.0473375 0.216991 -0.133911
0.0478253 0.214495 -0.134925
0.0473235 0.213996 -0.134926
0.0473378 0.217494 -0.134409
0.0473381 0.217996 -0.134906
0.0478399 0.218495 -0.134905
0.0478222 0.2145 -0.135925
0.0473204 0.214001 -0.135926
0.0473384 0.218499 -0.135404
0.0473386 0.219001 -0.135901
0.0478405 0.219499 -0.1359
0.047317 0.213504 -0.136428
0.0473137 0.213006 -0.136931
0.0478155 0.213505 -0.13693
0.0478192 0.214505 -0.136925
0.0473389 0.219504 -0.136399
0.0473392 0.220006 -0.136896
0.0478411 0.220504 -0.136895
0.0478125 0.21351 -0.13793
0.0473106 0.213011 -0.137931
0.0478161 0.21451 -0.137925
0.0473395 0.220509 -0.137394
0.0473398 0.221011 -0.137891
0.0478094 0.213515 -0.13893
0.0473076 0.213016 -0.138931
0.0478386 0.221514 -0.13889
0.0473368 0.221016 -0.138891
0.0478063 0.21352 -0.13993
0.0473045 0.213021 -0.139931
0.0478355 0.221519 -0.13989
0.0473337 0.221021 -0.139891
0.0478033 0.213524 -0.14093
0.0473015 0.213026 -0.140931
0.0478325 0.221524 -0.14089
0.0473307 0.221026 -0.140891
0.0478002 0.213529 -0.14193
0.0472984 0.213031 -0.141931
0.0478039 0.214529 -0.141925
0.0478294 0.221529 -0.14189
0.0473276 0.221031 -0.141891
0.0477972 0.213534 -0.14293
0.0472954 0.213036 -0.142931
0.0478264 0.221534 -0.14289
0.0473245 0.221036 -0.142891
0.0472956 0.213539 -0.143428
0.0472959 0.214041 -0.143926
0.0477978 0.214539 -0.143925
0.0473178 0.220041 -0.143896
0.0473212 0.220539 -0.143394
0.0478197 0.220539 -0.143895
0.0472962 0.214544 -0.144423
0.0472999 0.215544 -0.144418
0.0473002 0.216046 -0.144916
0.047802 0.216544 -0.144915
0.0478057 0.217544 -0.14491
0.0473111 0.219046 -0.144901
0.0473145 0.219544 -0.144398
0.0478129 0.219544 -0.1449
0.0473005 0.216549 -0.145413
0.0473041 0.217549 -0.145408
0.0473078 0.218549 -0.145403
0.0463329 0.214488 -0.13242
0.0463296 0.21399 -0.132923
0.0463366 0.215488 -0.132415
0.0463402 0.216488 -0.132411
0.0463405 0.21699 -0.132908
0.0463262 0.213493 -0.133425
0.0463229 0.212995 -0.133928
0.0468247 0.213493 -0.133927
0.0463375 0.216995 -0.133908
0.0468216 0.213498 -0.134927
0.0463198 0.213 -0.134928
0.0468362 0.217498 -0.134907
0.0463344 0.217 -0.134908
0.0468186 0.213503 -0.135927
0.0463168 0.213005 -0.135928
0.0463347 0.217502 -0.135405
0.0463384 0.218502 -0.135401
0.0463387 0.219005 -0.135898
0.0463134 0.212508 -0.13643
0.0463101 0.21201 -0.136933
0.0468119 0.212508 -0.136932
0.0468374 0.219508 -0.136897
0.0463356 0.21901 -0.136898
0.0468088 0.212513 -0.137932
0.046307 0.212015 -0.137933
0.0463359 0.219512 -0.137396
0.0463362 0.220015 -0.137893
0.046838 0.220513 -0.137892
0.0468058 0.212518 -0.138932
0.0463039 0.21202 -0.138933
0.0463365 0.220517 -0.138391
0.0463368 0.22102 -0.138888
0.0468027 0.212523 -0.139932
0.0463009 0.212025 -0.139933
0.0463301 0.220025 -0.139893
0.0463334 0.220522 -0.139391
0.0468319 0.220523 -0.139892
0.0467996 0.212528 -0.140932
0.0462978 0.21203 -0.140933
0.0468288 0.220528 -0.140892
0.046327 0.22003 -0.140893
0.0467966 0.212533 -0.141932
0.0462948 0.212035 -0.141933
0.0468258 0.220533 -0.141892
0.046324 0.220035 -0.141893
0.0467935 0.212538 -0.142932
0.0462917 0.21204 -0.142933
0.0468227 0.220538 -0.142892
0.0463209 0.22004 -0.142893
0.046292 0.212542 -0.14343
0.0462923 0.213045 -0.143928
0.0467941 0.213543 -0.143927
0.0463178 0.220045 -0.143893
0.0462926 0.213547 -0.144425
0.0462963 0.214547 -0.14442
0.0462999 0.215547 -0.144415
0.0463002 0.21605 -0.144913
0.0463075 0.21805 -0.144903
0.0463108 0.218547 -0.1444
0.0468093 0.218548 -0.144902
0.0463145 0.219547 -0.144395
0.0463005 0.216552 -0.14541
0.0463041 0.217552 -0.145405
0.045333 0.214491 -0.132417
0.0453296 0.213994 -0.13292
0.0453332 0.214994 -0.132915
0.0458351 0.215492 -0.132914
0.0458387 0.216492 -0.132909
0.0453226 0.212496 -0.133427
0.0453192 0.211999 -0.13393
0.0458211 0.212497 -0.133929
0.0453262 0.213496 -0.133422
0.045832 0.215497 -0.133914
0.0453302 0.214999 -0.133915
0.0458357 0.216497 -0.133909
0.0453159 0.211501 -0.134432
0.0453125 0.211004 -0.134935
0.0458144 0.211502 -0.134934
0.045818 0.212502 -0.134929
0.0453305 0.215501 -0.134412
0.0453341 0.216501 -0.134407
0.0453344 0.217004 -0.134905
0.0458113 0.211507 -0.135934
0.0453095 0.211009 -0.135935
0.0458149 0.212507 -0.135929
0.0453347 0.217506 -0.135402
0.045335 0.218009 -0.1359
0.0458368 0.218507 -0.135899
0.0458082 0.211512 -0.136934
0.0453064 0.211014 -0.136935
0.0458338 0.218512 -0.136899
0.045332 0.218014 -0.1369
0.0458052 0.211517 -0.137934
0.0453034 0.211019 -0.137935
0.0453323 0.218516 -0.137397
0.0453326 0.219019 -0.137895
0.0458344 0.219517 -0.137894
0.0458021 0.211522 -0.138934
0.0453003 0.211024 -0.138935
0.0458313 0.219522 -0.138894
0.0453295 0.219024 -0.138895
0.045835 0.220522 -0.138889
0.0457991 0.211527 -0.139934
0.0452972 0.211029 -0.139935
0.0458283 0.219527 -0.139894
0.0453264 0.219028 -0.139895
0.045796 0.211532 -0.140934
0.0452942 0.211034 -0.140935
0.0458252 0.219532 -0.140894
0.0453234 0.219033 -0.140895
0.045793 0.211537 -0.141934
0.0452911 0.211039 -0.141935
0.0458221 0.219537 -0.141894
0.0453203 0.219038 -0.141895
0.0457899 0.211542 -0.142934
0.0452881 0.211044 -0.142935
0.0458191 0.219542 -0.142894
0.0453173 0.219043 -0.142895
0.0452884 0.211546 -0.143432
0.0452887 0.212049 -0.14393
0.0457905 0.212547 -0.143929
0.045816 0.219547 -0.143894
0.0453142 0.219048 -0.143895
0.045289 0.212551 -0.144427
0.0452926 0.213551 -0.144422
0.0452929 0.214053 -0.14492
0.0457947 0.214552 -0.144919
0.0457984 0.215552 -0.144914
0.0453075 0.218053 -0.1449
0.0453109 0.218551 -0.144397
0.0452932 0.214556 -0.145417
0.0452969 0.215556 -0.145412
0.0453005 0.216556 -0.145407
0.0453042 0.217556 -0.145402
0.0443257 0.212495 -0.132424
0.0443223 0.211997 -0.132927
0.0448241 0.212496 -0.132926
0.0448278 0.213496 -0.132921
0.0443293 0.213495 -0.132419
0.044333 0.214495 -0.132414
0.0443333 0.214997 -0.132912
0.044319 0.2115 -0.133429
0.0443156 0.211002 -0.133932
0.0448174 0.211501 -0.133931
0.0443302 0.215002 -0.133912
0.0443123 0.210505 -0.134434
0.0443089 0.210007 -0.134937
0.0448107 0.210506 -0.134936
0.0443305 0.215505 -0.134409
0.0443308 0.216007 -0.134907
0.0448326 0.216505 -0.134906
0.0448077 0.210511 -0.135936
0.0443058 0.210012 -0.135937
0.0443311 0.21651 -0.135404
0.0443314 0.217012 -0.135902
0.0448332 0.21751 -0.135901
0.0448046 0.210516 -0.136936
0.0443028 0.210017 -0.136937
0.0448301 0.217515 -0.136901
0.0443283 0.217017 -0.136902
0.0442994 0.20952 -0.137439
0.0442961 0.209022 -0.137942
0.0447979 0.209521 -0.137941
0.0448015 0.210521 -0.137936
0.0443286 0.21752 -0.137399
0.0443289 0.218022 -0.137897
0.0448307 0.21852 -0.137896
0.0447948 0.209526 -0.138941
0.044293 0.209027 -0.138942
0.0447985 0.210525 -0.138936
0.0448277 0.218525 -0.138896
0.0443259 0.218027 -0.138897
0.0447918 0.20953 -0.139941
0.04429 0.209032 -0.139942
0.0447954 0.21053 -0.139936
0.0448246 0.21853 -0.139896
0.0443228 0.218032 -0.139897
0.0442903 0.209535 -0.140439
0.0442906 0.210037 -0.140937
0.0447924 0.210535 -0.140936
0.0448216 0.218535 -0.140896
0.0443197 0.218037 -0.140897
0.0447893 0.21054 -0.141936
0.0442875 0.210042 -0.141936
0.0448185 0.21854 -0.141896
0.0443167 0.218042 -0.141897
0.0447863 0.210545 -0.142936
0.0442844 0.210047 -0.142936
0.0448154 0.218545 -0.142896
0.0443136 0.218047 -0.142897
0.0442847 0.21055 -0.143434
0.044285 0.211052 -0.143931
0.0447869 0.21155 -0.143931
0.0448124 0.21855 -0.143896
0.0443106 0.218052 -0.143897
0.0442853 0.211555 -0.144429
0.044289 0.212555 -0.144424
0.0442893 0.213057 -0.144922
0.0447911 0.213555 -0.144921
0.0443039 0.217057 -0.144902
0.0443072 0.217555 -0.144399
0.0448057 0.217555 -0.144901
0.0442896 0.21356 -0.145419
0.0442932 0.21456 -0.145414
0.0442969 0.21556 -0.145409
0.0443005 0.21656 -0.145404
0.0433257 0.212499 -0.132421
0.0433223 0.212001 -0.132924
0.043326 0.213001 -0.132919
0.0438278 0.213499 -0.132918
0.0438314 0.214499 -0.132913
0.0433153 0.210504 -0.133431
0.043312 0.210006 -0.133934
0.0438138 0.210504 -0.133933
0.043319 0.211504 -0.133426
0.0433263 0.213503 -0.133416
0.0438284 0.214504 -0.133913
0.0433266 0.214006 -0.133914
0.0433086 0.209509 -0.134436
0.0433053 0.209011 -0.134939
0.0438071 0.209509 -0.134938
0.0433269 0.214508 -0.134411
0.0433272 0.215011 -0.134909
0.043829 0.215509 -0.134908
0.043804 0.209514 -0.135938
0.0433022 0.209016 -0.135938
0.0438259 0.215514 -0.135908
0.0433241 0.215016 -0.135909
0.0438296 0.216514 -0.135903
0.043801 0.209519 -0.136938
0.0432991 0.209021 -0.136938
0.0433244 0.215518 -0.136406
0.0438265 0.216519 -0.136903
0.0433247 0.216021 -0.136904
0.0432958 0.208524 -0.137441
0.0432924 0.208026 -0.137943
0.0437943 0.208524 -0.137942
0.043325 0.216523 -0.137401
0.0433253 0.217026 -0.137899
0.0438271 0.217524 -0.137898
0.0437912 0.208529 -0.138942
0.0432894 0.208031 -0.138943
0.043824 0.217529 -0.138898
0.0433222 0.217031 -0.138899
0.0437881 0.208534 -0.139942
0.0432863 0.208036 -0.139943
0.043821 0.217534 -0.139898
0.0433192 0.217036 -0.139899
0.0437851 0.208539 -0.140942
0.0432833 0.208041 -0.140943
0.0437887 0.209539 -0.140937
0.0438179 0.217539 -0.140898
0.0433161 0.217041 -0.140899
0.0432836 0.208543 -0.141441
0.0432839 0.209046 -0.141938
0.0437857 0.209544 -0.141937
0.0433164 0.217543 -0.141396
0.0433167 0.218046 -0.141894
0.0437826 0.209549 -0.142937
0.0432808 0.209051 -0.142938
0.0433136 0.218051 -0.142894
0.0432811 0.209553 -0.143436
0.0432814 0.210056 -0.143933
0.0437832 0.210554 -0.143932
0.0433033 0.216056 -0.143904
0.0433066 0.216553 -0.143401
0.0438051 0.216554 -0.143903
0.0433103 0.217553 -0.143396
0.0438088 0.217554 -0.143898
0.0432817 0.210558 -0.144431
0.0432853 0.211558 -0.144426
0.043289 0.212558 -0.144421
0.0432893 0.213061 -0.144918
0.043802 0.216559 -0.144903
0.0433002 0.216061 -0.144904
0.0432896 0.213563 -0.145416
0.0432932 0.214563 -0.145411
0.0432969 0.215563 -0.145406
0.0423257 0.212502 -0.132418
0.0423223 0.212005 -0.132921
0.042326 0.213005 -0.132916
0.0423117 0.209507 -0.133433
0.0423083 0.20901 -0.133935
0.0428101 0.209508 -0.133935
0.0423153 0.210507 -0.133428
0.042319 0.211507 -0.133423
0.0428247 0.213508 -0.133915
0.0423229 0.21301 -0.133916
0.042305 0.208512 -0.134438
0.0423016 0.208015 -0.13494
0.0428034 0.208513 -0.134939
0.0423232 0.213512 -0.134413
0.0423235 0.214015 -0.134911
0.0428253 0.214513 -0.13491
0.0428004 0.208518 -0.135939
0.0422986 0.20802 -0.13594
0.0428223 0.214518 -0.13591
0.0423205 0.21402 -0.135911
0.0427973 0.208523 -0.136939
0.0422955 0.208025 -0.13694
0.0423208 0.214522 -0.136408
0.0423211 0.215025 -0.136906
0.0428229 0.215523 -0.136905
0.0422925 0.20803 -0.13794
0.0423213 0.215527 -0.137403
0.0423216 0.216029 -0.137901
0.0428235 0.216528 -0.1379
0.0422894 0.208035 -0.13894
0.0428204 0.216533 -0.1389
0.0423186 0.216034 -0.138901
0.0422863 0.20804 -0.13994
0.0423189 0.216537 -0.139398
0.0423192 0.217039 -0.139896
0.0422833 0.208045 -0.14094
0.0423161 0.217044 -0.140896
0.042782 0.208548 -0.141939
0.0422802 0.20805 -0.14194
0.0428149 0.217548 -0.141895
0.0423131 0.217049 -0.141896
0.042779 0.208553 -0.142939
0.0422772 0.208055 -0.14294
0.0423064 0.216054 -0.142901
0.0423097 0.216552 -0.142398
0.0428082 0.216553 -0.1429
0.0428118 0.217553 -0.142895
0.0422775 0.208557 -0.143438
0.0422778 0.20906 -0.143935
0.0427796 0.209558 -0.143934
0.0423033 0.216059 -0.143901
0.0422781 0.209562 -0.144433
0.0422783 0.210064 -0.14493
0.0427802 0.210563 -0.144929
0.0427838 0.211563 -0.144924
0.0427875 0.212563 -0.144919
0.0422966 0.215064 -0.144905
0.0422999 0.215562 -0.144403
0.0427984 0.215563 -0.144905
0.0422786 0.210567 -0.145428
0.0422823 0.211567 -0.145423
0.0422859 0.212567 -0.145418
0.0422896 0.213567 -0.145413
0.0422932 0.214567 -0.145408
0.0418242 0.212506 -0.132917
0.0413117 0.209511 -0.13343
0.0413083 0.209013 -0.133932
0.0413153 0.210511 -0.133425
0.041319 0.211511 -0.13342
0.0418211 0.212511 -0.133917
0.0413193 0.212013 -0.133917
0.041305 0.208516 -0.134435
0.0413016 0.208018 -0.134937
0.0413196 0.212516 -0.134415
0.0413199 0.213018 -0.134912
0.0418217 0.213516 -0.134912
0.0412983 0.207521 -0.13544
0.0412949 0.207023 -0.135942
0.0417967 0.207522 -0.135941
0.0413202 0.213521 -0.13541
0.0413205 0.214023 -0.135907
0.0417937 0.207526 -0.136941
0.0412919 0.207028 -0.136942
0.0418192 0.214526 -0.136907
0.0413174 0.214028 -0.136907
0.0417906 0.207531 -0.137941
0.0412888 0.207033 -0.137942
0.0413177 0.214531 -0.137405
0.041318 0.215033 -0.137902
0.0418198 0.215531 -0.137902
0.0417876 0.207536 -0.138941
0.0412858 0.207038 -0.138942
0.0413183 0.215536 -0.1384
0.0413186 0.216038 -0.138898
0.0417845 0.207541 -0.139941
0.0412827 0.207043 -0.139942
0.0418174 0.216541 -0.139897
0.0413155 0.216043 -0.139897
0.0417815 0.207546 -0.140941
0.0412796 0.207048 -0.140942
0.0418143 0.216546 -0.140897
0.0413125 0.216048 -0.140897
0.0417784 0.207551 -0.141941
0.0412766 0.207053 -0.141942
0.0418112 0.216551 -0.141897
0.0413094 0.216053 -0.141897
0.0417753 0.207556 -0.142941
0.0412735 0.207058 -0.142942
0.0413064 0.216058 -0.142897
0.0412738 0.207561 -0.14344
0.0412741 0.208063 -0.143937
0.0417759 0.208561 -0.143936
0.0412997 0.215063 -0.143902
0.041303 0.215561 -0.1434
0.0418015 0.215561 -0.143901
0.0412744 0.208566 -0.144435
0.0412747 0.209068 -0.144932
0.0417765 0.209566 -0.144931
0.0412966 0.215068 -0.144902
0.041275 0.209571 -0.14543
0.0412787 0.210571 -0.145425
0.0412823 0.211571 -0.14542
0.0412826 0.212073 -0.145917
0.0417844 0.212571 -0.145916
0.0412862 0.213073 -0.145912
0.0412896 0.213571 -0.14541
0.0412933 0.214571 -0.145405
0.0412829 0.212576 -0.146415
0.0403117 0.209514 -0.133427
0.0403084 0.209017 -0.133929
0.0403154 0.210514 -0.133422
0.0403156 0.211017 -0.133919
0.0408175 0.211515 -0.133918
0.0403014 0.207519 -0.134437
0.040298 0.207022 -0.134939
0.0407998 0.20752 -0.134938
0.040305 0.208519 -0.134432
0.0403159 0.211519 -0.134417
0.0403162 0.212022 -0.134914
0.0408181 0.21252 -0.134913
0.0402949 0.207027 -0.135939
0.0403165 0.212524 -0.135412
0.0403168 0.213027 -0.135909
0.0408187 0.213525 -0.135908
0.0402916 0.206529 -0.136442
0.0402882 0.206032 -0.136944
0.0407901 0.20653 -0.136943
0.0403171 0.213529 -0.136407
0.0403174 0.214032 -0.136904
0.040787 0.206535 -0.137943
0.0402852 0.206037 -0.137944
0.0403177 0.214534 -0.137402
0.040318 0.215037 -0.137899
0.0407839 0.20654 -0.138943
0.0402821 0.206042 -0.138944
0.0408168 0.21554 -0.138898
0.040315 0.215042 -0.138899
0.0407809 0.206545 -0.139943
0.0402791 0.206047 -0.139944
0.0403153 0.215544 -0.139397
0.0403156 0.216047 -0.139894
0.0407778 0.20655 -0.140943
0.040276 0.206052 -0.140944
0.0403125 0.216052 -0.140894
0.0407748 0.206555 -0.141943
0.0402729 0.206057 -0.141944
0.0403094 0.216057 -0.141894
0.0407717 0.20656 -0.142943
0.0402699 0.206062 -0.142944
0.0403064 0.216062 -0.142894
0.0402702 0.206564 -0.143442
0.0402705 0.207067 -0.143939
0.0407723 0.207565 -0.143938
0.0402997 0.215067 -0.143899
0.040303 0.215564 -0.143397
0.0402708 0.207569 -0.144437
0.0402711 0.208072 -0.144934
0.0407729 0.20857 -0.144933
0.040293 0.214072 -0.144904
0.0402963 0.214569 -0.144402
0.0407948 0.21457 -0.144903
0.0402714 0.208574 -0.145432
0.040275 0.209574 -0.145427
0.0402787 0.210574 -0.145422
0.040279 0.211077 -0.145919
0.0407808 0.211575 -0.145918
0.0402863 0.213077 -0.145909
0.0402896 0.213574 -0.145407
0.0402793 0.211579 -0.146417
0.0402829 0.212579 -0.146412
0.0398102 0.209519 -0.133925
0.0398138 0.210519 -0.13392
0.0393014 0.207523 -0.134434
0.039298 0.207026 -0.134936
0.039305 0.208523 -0.134429
0.0393087 0.209523 -0.134424
0.0393123 0.210523 -0.134419
0.0393126 0.211026 -0.134916
0.0398144 0.211524 -0.134915
0.0392947 0.206528 -0.135439
0.0392913 0.206031 -0.135941
0.0397931 0.206529 -0.13594
0.0393129 0.211528 -0.135414
0.0393132 0.212031 -0.135911
0.039815 0.212529 -0.13591
0.0392879 0.205533 -0.136444
0.0392846 0.205036 -0.136946
0.0397864 0.205534 -0.136945
0.0393135 0.212533 -0.136409
0.0393138 0.213035 -0.136906
0.0398156 0.213534 -0.136905
0.0397834 0.205539 -0.137945
0.0392815 0.205041 -0.137946
0.0393141 0.213538 -0.137404
0.0393144 0.21404 -0.137901
0.0398162 0.214539 -0.1379
0.0397803 0.205544 -0.138945
0.0392785 0.205046 -0.138946
0.0393147 0.214543 -0.138399
0.039315 0.215045 -0.138896
0.0397772 0.205549 -0.139945
0.0392754 0.205051 -0.139946
0.0398137 0.215549 -0.139895
0.0393119 0.21505 -0.139896
0.0397742 0.205554 -0.140945
0.0392724 0.205056 -0.140946