<VTKFile type="UnstructuredGrid" version="0.1" byte_order="BigEndian">
  <UnstructuredGrid>
    <Piece NumberOfPoints="13608" NumberOfCells="27216">
      <PointData>
        <DataArray type="Float64" Name="position" NumberOfComponents="3" format="ascii">
0.0381237 0.243029 -0.198499
0.038135 0.242554 -0.199022
0.0391284 0.243063 -0.198985
0.0381255 0.243553 -0.198974
0.0381464 0.242079 -0.199546
0.0381577 0.241604 -0.20007
0.0391511 0.242112 -0.200032
0.0391415 0.243111 -0.199983
0.0381386 0.243602 -0.199973
0.0391642 0.242161 -0.201031
0.0381709 0.241653 -0.201068
0.0391547 0.24316 -0.200982
0.0381518 0.24365 -0.200971
0.0391774 0.24221 -0.202029
0.0381841 0.241701 -0.202067
0.0391678 0.243208 -0.201981
0.0381649 0.243699 -0.20197
0.0391906 0.242258 -0.203028
0.0381972 0.24175 -0.203066
0.039181 0.243257 -0.20298
0.0381781 0.243747 -0.202969
0.038199 0.242273 -0.203541
0.0382008 0.242797 -0.204016
0.0391942 0.243305 -0.203978
0.0381913 0.243796 -0.203968
0.0382026 0.243321 -0.204491
0.0360975 0.241867 -0.195578
0.0361089 0.241392 -0.196102
0.0371022 0.2419 -0.196064
0.0360993 0.242391 -0.196053
0.0361202 0.240917 -0.196625
0.0361316 0.240442 -0.197149
0.0371249 0.24095 -0.197111
0.0371154 0.241949 -0.197063
0.0361011 0.242914 -0.196529
0.0371058 0.242948 -0.197014
0.0361029 0.243438 -0.197004
0.0371381 0.240999 -0.19811
0.0361447 0.24049 -0.198148
0.0371285 0.241997 -0.198062
0.037119 0.242996 -0.198013
0.0361161 0.243487 -0.198002
0.0371512 0.241047 -0.199109
0.0361579 0.240539 -0.199147
0.0371417 0.242046 -0.19906
0.0371226 0.244044 -0.198963
0.0361179 0.24401 -0.198478
0.0361197 0.244534 -0.198953
0.0371644 0.241096 -0.200107
0.0361711 0.240587 -0.200145
0.0371357 0.244092 -0.199962
0.0361328 0.244583 -0.199951
0.0371776 0.241144 -0.201106
0.0361842 0.240636 -0.201144
0.0371489 0.244141 -0.200961
0.036146 0.244631 -0.20095
0.0371907 0.241193 -0.202105
0.0361974 0.240685 -0.202143
0.037162 0.244189 -0.20196
0.0361591 0.24468 -0.201949
0.0372039 0.241242 -0.203104
0.0362106 0.240733 -0.203141
0.0371752 0.244238 -0.202958
0.0361723 0.244728 -0.202948
0.0372171 0.24129 -0.204102
0.0362237 0.240782 -0.20414
0.0372075 0.242289 -0.204054
0.0371884 0.244286 -0.203957
0.0361855 0.244777 -0.203946
0.0362255 0.241305 -0.204615
0.0362273 0.241829 -0.20509
0.0372207 0.242337 -0.205053
0.0372111 0.243336 -0.205004
0.0372015 0.244335 -0.204956
0.0361986 0.244825 -0.204945
0.0362291 0.242353 -0.205566
0.0362196 0.243352 -0.205517
0.03621 0.24435 -0.205469
0.0341204 0.239852 -0.195702
0.0341317 0.239377 -0.196226
0.0351251 0.239885 -0.196188
0.0351155 0.240884 -0.19614
0.0341108 0.240851 -0.195654
0.0341013 0.241849 -0.195605
0.0341031 0.242373 -0.196081
0.0341431 0.238902 -0.19675
0.0341545 0.238426 -0.197273
0.0351478 0.238935 -0.197235
0.0351382 0.239933 -0.197187
0.0351096 0.24293 -0.197042
0.0341162 0.242422 -0.197079
0.035161 0.238983 -0.198234
0.0341676 0.238475 -0.198272
0.0351514 0.239982 -0.198186
0.034118 0.242945 -0.197554
0.0341198 0.243469 -0.19803
0.0351741 0.239032 -0.199233
0.0341808 0.238524 -0.199271
0.0351646 0.240031 -0.199184
0.0351263 0.244026 -0.198991
0.034133 0.243517 -0.199028
0.0341826 0.239047 -0.199746
0.0341844 0.239571 -0.200221
0.0351777 0.240079 -0.200183
0.0341348 0.244041 -0.199504
0.0341366 0.244565 -0.199979
0.0351909 0.240128 -0.201182
0.0341976 0.239619 -0.20122
0.0341497 0.244613 -0.200977
0.0352041 0.240176 -0.202181
0.0342107 0.239668 -0.202218
0.0341629 0.244662 -0.201976
0.0352172 0.240225 -0.203179
0.0342239 0.239717 -0.203217
0.0341761 0.244711 -0.202975
0.0342257 0.24024 -0.203692
0.0342275 0.240764 -0.204167
0.0341892 0.244759 -0.203974
0.035234 0.241321 -0.205128
0.0342406 0.240813 -0.205166
0.0342024 0.244808 -0.204972
0.0342424 0.241336 -0.205641
0.0342329 0.242335 -0.205593
0.0342347 0.242859 -0.206068
0.035228 0.243367 -0.20603
0.0342251 0.243857 -0.20602
0.0342138 0.244333 -0.205496
0.0342365 0.243382 -0.206543
0.0321433 0.237836 -0.195826
0.0321546 0.237361 -0.19635
0.033148 0.23787 -0.196312
0.0331384 0.238868 -0.196264
0.0321337 0.238835 -0.195778
0.0321242 0.239834 -0.19573
0.032126 0.240358 -0.196205
0.0331193 0.240866 -0.196167
0.0331097 0.241865 -0.196118
0.0331611 0.237918 -0.197311
0.0321678 0.23741 -0.197349
0.0321278 0.240881 -0.19668
0.0321182 0.24188 -0.196631
0.03212 0.242404 -0.197107
0.0331743 0.237967 -0.19831
0.032181 0.237458 -0.198348
0.0331265 0.242961 -0.198067
0.0321332 0.242452 -0.198105
0.0321828 0.237982 -0.198823
0.0321846 0.238506 -0.199298
0.032135 0.242976 -0.19858
0.0321368 0.2435 -0.199056
0.0331911 0.239063 -0.200259
0.0321977 0.238554 -0.200297
0.0331432 0.244057 -0.200016
0.0321499 0.243548 -0.200054
0.0332042 0.239111 -0.201257
0.0322109 0.238603 -0.201295
0.0321517 0.244072 -0.200529
0.0321535 0.244596 -0.201005
0.0332174 0.23916 -0.202256
0.032224 0.238652 -0.202294
0.0321667 0.244644 -0.202003
0.0322258 0.239175 -0.202769
0.0322276 0.239699 -0.203244
0.0321798 0.244693 -0.203002
0.0332341 0.240256 -0.204205
0.0322408 0.239747 -0.204243
0.032193 0.244741 -0.204001
0.0332473 0.240304 -0.205204
0.032254 0.239796 -0.205242
0.0322157 0.243791 -0.205048
0.0322044 0.244266 -0.204524
0.0332091 0.244299 -0.20501
0.0322558 0.24032 -0.205717
0.0322576 0.240843 -0.206192
0.0332509 0.241352 -0.206154
0.0332413 0.24235 -0.206106
0.0322384 0.242841 -0.206095
0.0322271 0.243316 -0.205572
0.0332318 0.243349 -0.206057
0.0322594 0.241367 -0.206667
0.0322498 0.242366 -0.206619
0.030147 0.237819 -0.195854
0.0301584 0.237343 -0.196377
0.0301375 0.238817 -0.195805
0.0301393 0.239341 -0.19628
0.0311326 0.239849 -0.196243
0.0301698 0.236868 -0.196901
0.0301811 0.236393 -0.197424
0.0311745 0.236902 -0.197387
0.0301411 0.239865 -0.196755
0.0301315 0.240863 -0.196707
0.0301333 0.241387 -0.197182
0.0311266 0.241895 -0.197144
0.0311876 0.23695 -0.198385
0.0301943 0.236442 -0.198423
0.0301351 0.241911 -0.197657
0.0301369 0.242435 -0.198132
0.0312008 0.236999 -0.199384
0.0302074 0.23649 -0.199422
0.0311912 0.237997 -0.199336
0.0301387 0.242958 -0.198608
0.0301405 0.243482 -0.199083
0.0302092 0.237014 -0.199897
0.030211 0.237538 -0.200372
0.0312044 0.238046 -0.200334
0.0301537 0.24353 -0.200081
0.0312175 0.238095 -0.201333
0.0302242 0.237586 -0.201371
0.0311602 0.244087 -0.201042
0.0301668 0.243579 -0.20108
0.030226 0.23811 -0.201846
0.0302278 0.238634 -0.202321
0.0311733 0.244136 -0.202041
0.03018 0.243628 -0.202079
0.0312343 0.239191 -0.203282
0.030241 0.238682 -0.20332
0.0311865 0.244184 -0.20304
0.0301932 0.243676 -0.203078
0.0312475 0.239239 -0.204281
0.0302541 0.238731 -0.204319
0.0311997 0.244233 -0.204039
0.0302063 0.243725 -0.204076
0.0302559 0.239255 -0.204794
0.0302577 0.239778 -0.205269
0.030229 0.242775 -0.205124
0.0302177 0.24325 -0.2046
0.0312224 0.243283 -0.205086
0.0312642 0.240335 -0.20623
0.0302709 0.239827 -0.206268
0.0302518 0.241824 -0.206171
0.0302404 0.242299 -0.205647
0.0312451 0.242333 -0.206133
0.0302727 0.24035 -0.206743
0.0302631 0.241349 -0.206694
0.0291555 0.237834 -0.196367
0.0291459 0.238833 -0.196318
0.0281735 0.236851 -0.196928
0.0281849 0.236375 -0.197452
0.028164 0.237849 -0.19688
0.0281544 0.238848 -0.196831
0.0281562 0.239372 -0.197306
0.0291495 0.23988 -0.197268
0.02914 0.240879 -0.19722
0.028198 0.236424 -0.19845
0.028158 0.239895 -0.197781
0.0281484 0.240894 -0.197733
0.0281502 0.241418 -0.198208
0.0291436 0.241926 -0.19817
0.0282112 0.236473 -0.199449
0.028152 0.241942 -0.198683
0.0281538 0.242465 -0.199158
0.0291472 0.242974 -0.199121
0.0292177 0.237029 -0.20041
0.0282244 0.236521 -0.200448
0.0281556 0.242989 -0.199633
0.0281574 0.243513 -0.200109
0.0282262 0.237045 -0.200923
0.028228 0.237569 -0.201398
0.0281706 0.243561 -0.201107
0.0292345 0.238125 -0.202359
0.0282411 0.237617 -0.202397
0.0281838 0.24361 -0.202106
0.0292476 0.238174 -0.203358
0.0282543 0.237666 -0.203396
0.0282065 0.24266 -0.203153
0.0281951 0.243135 -0.20263
0.0291998 0.243168 -0.203115
0.0282561 0.238189 -0.203871
0.0282579 0.238713 -0.204346
0.029213 0.243216 -0.204114
0.0282196 0.242708 -0.204152
0.0292644 0.23927 -0.205307
0.0282711 0.238762 -0.205345
0.0282424 0.241758 -0.205199
0.028231 0.242233 -0.204676
0.0292357 0.242266 -0.205161
0.0282729 0.239285 -0.20582
0.0282747 0.239809 -0.206295
0.0282555 0.241807 -0.206198
0.0282765 0.240333 -0.20677
0.0282669 0.241331 -0.206722
0.0261869 0.235834 -0.197004
0.0261982 0.235359 -0.197527
0.0271915 0.235867 -0.197489
0.0261773 0.236833 -0.196955
0.0261677 0.237832 -0.196907
0.0261582 0.23883 -0.196858
0.02616 0.239354 -0.197333
0.0272047 0.235916 -0.198488
0.0262114 0.235407 -0.198526
0.0261618 0.239878 -0.197809
0.0261522 0.240876 -0.19776
0.026154 0.2414 -0.198235
0.0272179 0.235964 -0.199487
0.0262245 0.235456 -0.199525
0.0261558 0.241924 -0.19871
0.0261576 0.242448 -0.199186
0.0262263 0.23598 -0.2
0.0262281 0.236503 -0.200475
0.0271641 0.243004 -0.200146
0.0261708 0.242496 -0.200184
0.0272346 0.23706 -0.201436
0.0262413 0.236552 -0.201474
0.0271773 0.243053 -0.201145
0.0261839 0.242545 -0.201183
0.0272478 0.237109 -0.202435
0.0262545 0.236601 -0.202472
0.0271904 0.243102 -0.202144
0.0261971 0.242593 -0.202182
0.0262563 0.237124 -0.202948
0.0262581 0.237648 -0.203423
0.0262102 0.242642 -0.20318
0.0272646 0.238205 -0.204384
0.0262712 0.237696 -0.204421
0.026233 0.241692 -0.204228
0.0262216 0.242167 -0.203704
0.0272263 0.2422 -0.20419
0.0272777 0.238253 -0.205382
0.0262844 0.237745 -0.20542
0.0262461 0.24174 -0.205226
0.0262862 0.238269 -0.205895
0.026288 0.238792 -0.20637
0.0272813 0.239301 -0.206333
0.0262689 0.24079 -0.206274
0.0262575 0.241265 -0.20575
0.0272622 0.241298 -0.206236
0.0262898 0.239316 -0.206846
0.0262802 0.240315 -0.206797
0.0267034 0.20465 -0.214534
0.0267148 0.204175 -0.215057
0.0277081 0.204683 -0.21502
0.0276985 0.205682 -0.214971
0.0266938 0.205649 -0.214485
0.027689 0.206681 -0.214923
0.0266843 0.206648 -0.214437
0.0266861 0.207171 -0.214912
0.0267261 0.2037 -0.215581
0.0267375 0.203225 -0.216105
0.0277308 0.203733 -0.216067
0.0277213 0.204732 -0.216018
0.0277117 0.205731 -0.21597
0.0277021 0.20673 -0.215921
0.0266879 0.207695 -0.215387
0.0276926 0.207728 -0.215873
0.027683 0.208727 -0.215824
0.0266783 0.208694 -0.215339
0.0276735 0.209726 -0.215776
0.0266688 0.209693 -0.21529
0.0266706 0.210216 -0.215765
0.027744 0.203782 -0.217065
0.0267507 0.203274 -0.217103
0.0277344 0.204781 -0.217017
0.0277249 0.205779 -0.216969
0.0277153 0.206778 -0.21692
0.0277057 0.207777 -0.216872
0.0276962 0.208776 -0.216823
0.0276866 0.209774 -0.216775
0.0266724 0.21074 -0.216241
0.0276771 0.210773 -0.216726
0.0276675 0.211772 -0.216678
0.0266628 0.211739 -0.216192
0.0276579 0.212771 -0.216629
0.0266532 0.212738 -0.216144
0.0276484 0.21377 -0.216581
0.0266437 0.213736 -0.216095
0.0266455 0.21426 -0.21657
0.0267525 0.203797 -0.217578
0.0267429 0.204796 -0.21753
0.0267447 0.20532 -0.218005
0.027738 0.205828 -0.217967
0.0277285 0.206827 -0.217919
0.0277189 0.207826 -0.21787
0.0277093 0.208824 -0.217822
0.0276998 0.209823 -0.217773
0.0276902 0.210822 -0.217725
0.0276807 0.211821 -0.217677
0.0276711 0.212819 -0.217628
0.0276615 0.213818 -0.21758
0.0266473 0.214784 -0.217045
0.027652 0.214817 -0.217531
0.0276424 0.215816 -0.217483
0.0266377 0.215783 -0.216997
0.0276329 0.216815 -0.217434
0.0266282 0.216781 -0.216949
0.02663 0.217305 -0.217424
0.0267465 0.205843 -0.21848
0.0267369 0.206842 -0.218432
0.0267274 0.207841 -0.218383
0.0267178 0.20884 -0.218335
0.0267082 0.209838 -0.218286
0.0266987 0.210837 -0.218238
0.0266891 0.211836 -0.21819
0.0266909 0.21236 -0.218665
0.0276843 0.212868 -0.218627
0.0276747 0.213867 -0.218578
0.0276651 0.214866 -0.21853
0.0276556 0.215864 -0.218482
0.027646 0.216863 -0.218433
0.0266318 0.217829 -0.217899
0.0276364 0.217862 -0.218385
0.0266336 0.218352 -0.218374
0.0266927 0.212883 -0.21914
0.0266832 0.213882 -0.219091
0.026685 0.214406 -0.219567
0.0276783 0.214914 -0.219529
0.0276687 0.215913 -0.21948
0.0276592 0.216912 -0.219432
0.0276496 0.21791 -0.219383
0.0266467 0.218401 -0.219373
0.0266868 0.21493 -0.220042
0.0266772 0.215928 -0.219993
0.0266676 0.216927 -0.219945
0.0266581 0.217926 -0.219896
0.0241906 0.235816 -0.197031
0.024202 0.235341 -0.197554
0.0241811 0.236815 -0.196982
0.0241715 0.237814 -0.196934
0.0241619 0.238813 -0.196885
0.0251571 0.239845 -0.197323
0.0241524 0.239811 -0.196837
0.0241542 0.240335 -0.197312
0.0242133 0.234866 -0.198078
0.0242247 0.234391 -0.198602
0.025218 0.234899 -0.198564
0.024156 0.240859 -0.197787
0.0241578 0.241382 -0.198262
0.0252312 0.234948 -0.199562
0.0242379 0.234439 -0.1996
0.0241596 0.241906 -0.198738
0.0241614 0.24243 -0.199213
0.0242397 0.234963 -0.200075
0.0242415 0.235487 -0.200551
0.0252348 0.235995 -0.200513
0.0241745 0.242478 -0.200211
0.025248 0.236044 -0.201511
0.0242546 0.235535 -0.201549
0.0241877 0.242527 -0.20121
0.0252611 0.236092 -0.20251
0.0242678 0.235584 -0.202548
0.0242008 0.242575 -0.202209
0.0242696 0.236108 -0.203023
0.0242714 0.236631 -0.203498
0.0252647 0.23714 -0.203461
0.024214 0.242624 -0.203208
0.0252779 0.237188 -0.204459
0.0242845 0.23668 -0.204497
0.0242367 0.241674 -0.204255
0.0242254 0.242149 -0.203731
0.0242863 0.237204 -0.204972
0.0242881 0.237727 -0.205447
0.0242499 0.241722 -0.205254
0.0252946 0.238284 -0.206408
0.0243013 0.237776 -0.206446
0.0242726 0.240772 -0.206301
0.0242613 0.241247 -0.205777
0.0243031 0.2383 -0.206921
0.0242935 0.239298 -0.206873
0.024284 0.240297 -0.206824
0.0247323 0.200589 -0.213756
0.0247436 0.200114 -0.21428
0.025737 0.200622 -0.214242
0.0257274 0.201621 -0.214193
0.0247227 0.201588 -0.213708
0.0257178 0.20262 -0.214145
0.0247131 0.202586 -0.213659
0.0257083 0.203618 -0.214096
0.0247036 0.203585 -0.213611
0.0256987 0.204617 -0.214048
0.024694 0.204584 -0.213562
0.0256891 0.205616 -0.214
0.0246844 0.205583 -0.213514
0.0256796 0.206615 -0.213951
0.0246749 0.206581 -0.213465
0.0246767 0.207105 -0.21394
0.0257501 0.200671 -0.215241
0.0247568 0.200162 -0.215278
0.0257406 0.201669 -0.215192
0.025731 0.202668 -0.215144
0.0257214 0.203667 -0.215095
0.0256832 0.207662 -0.214901
0.0246785 0.207629 -0.214416
0.0256736 0.208661 -0.214853
0.0246689 0.208628 -0.214367
0.0256641 0.20966 -0.214804
0.0246594 0.209626 -0.214319
0.0256545 0.210658 -0.214756
0.0246498 0.210625 -0.21427
0.0256449 0.211657 -0.214708
0.0246402 0.211624 -0.214222
0.0256354 0.212656 -0.214659
0.0246307 0.212623 -0.214173
0.0256258 0.213655 -0.214611
0.0246211 0.213621 -0.214125
0.0256163 0.214653 -0.214562
0.0246116 0.21462 -0.214076
0.0246134 0.215144 -0.214552
0.0257633 0.200719 -0.216239
0.0247699 0.200211 -0.216277
0.0257537 0.201718 -0.216191
0.0257442 0.202717 -0.216142
0.0256677 0.210707 -0.215755
0.0256581 0.211706 -0.215706
0.0256485 0.212704 -0.215658
0.025639 0.213703 -0.215609
0.0256294 0.214702 -0.215561
0.0246152 0.215668 -0.215027
0.0256199 0.215701 -0.215512
0.0256103 0.2167 -0.215464
0.0246056 0.216666 -0.214978
0.0246074 0.21719 -0.215453
0.0257764 0.200768 -0.217238
0.0247831 0.200259 -0.217276
0.0257669 0.201766 -0.21719
0.0257573 0.202765 -0.217141
0.0256426 0.214751 -0.21656
0.025633 0.215749 -0.216511
0.0256235 0.216748 -0.216463
0.0246092 0.217714 -0.215929
0.0256139 0.217747 -0.216414
0.024611 0.218237 -0.216404
0.0257896 0.200816 -0.218237
0.0247963 0.200308 -0.218275
0.02578 0.201815 -0.218188
0.0257705 0.202814 -0.21814
0.0257609 0.203813 -0.218091
0.0257514 0.204811 -0.218043
0.0256271 0.217796 -0.217413
0.0246128 0.218761 -0.216879
0.0256175 0.218794 -0.217365
0.0246146 0.219285 -0.217354
0.0247981 0.200832 -0.21875
0.0247885 0.20183 -0.218701
0.0247789 0.202829 -0.218653
0.0247694 0.203828 -0.218604
0.0247598 0.204827 -0.218556
0.0247503 0.205826 -0.218507
0.0247521 0.206349 -0.218983
0.0257454 0.206858 -0.218945
0.0257358 0.207856 -0.218896
0.0257263 0.208855 -0.218848
0.0257167 0.209854 -0.218799
0.0257071 0.210853 -0.218751
0.0256976 0.211851 -0.218702
0.0256307 0.218843 -0.218363
0.0246278 0.219333 -0.218353
0.0247539 0.206873 -0.219458
0.0247443 0.207872 -0.219409
0.0247347 0.20887 -0.219361
0.0247252 0.209869 -0.219312
0.0247156 0.210868 -0.219264
0.0247174 0.211392 -0.219739
0.0257107 0.2119 -0.219701
0.0257012 0.212899 -0.219653
0.0256916 0.213898 -0.219604
0.0256438 0.218891 -0.219362
0.0246296 0.219857 -0.218828
0.0256343 0.21989 -0.219314
0.0246314 0.220381 -0.219303
0.0247192 0.211915 -0.220214
0.0247096 0.212914 -0.220166
0.0247001 0.213913 -0.220117
0.0247019 0.214437 -0.220592
0.0256952 0.214945 -0.220555
0.0256857 0.215944 -0.220506
0.0256761 0.216942 -0.220458
0.0256665 0.217941 -0.220409
0.025657 0.21894 -0.220361
0.0246427 0.219906 -0.219827
0.0246541 0.219431 -0.22035
0.0247037 0.21496 -0.221068
0.0246941 0.215959 -0.221019
0.0246846 0.216958 -0.220971
0.024675 0.217957 -0.220922
0.0246654 0.218955 -0.220874
0.0224286 0.205641 -0.194517
0.0224399 0.205166 -0.19504
0.0234333 0.205674 -0.195002
0.0234237 0.206673 -0.194954
0.022419 0.20664 -0.194468
0.0234142 0.207671 -0.194905
0.0224095 0.207638 -0.19442
0.0234046 0.20867 -0.194857
0.0223999 0.208637 -0.194371
0.023395 0.209669 -0.194809
0.0223903 0.209636 -0.194323
0.0233855 0.210668 -0.19476
0.0223808 0.210635 -0.194274
0.0233759 0.211667 -0.194712
0.0223712 0.211633 -0.194226
0.0233664 0.212665 -0.194663
0.0223617 0.212632 -0.194177
0.0233568 0.213664 -0.194615
0.0223521 0.213631 -0.194129
0.0233472 0.214663 -0.194566
0.0223425 0.21463 -0.19408
0.0233377 0.215662 -0.194518
0.022333 0.215629 -0.194032
0.0233281 0.21666 -0.194469
0.0223234 0.216627 -0.193984
0.0233185 0.217659 -0.194421
0.0223138 0.217626 -0.193935
0.023309 0.218658 -0.194372
0.0223043 0.218625 -0.193887
0.0232994 0.219657 -0.194324
0.0222947 0.219624 -0.193838
0.0232899 0.220656 -0.194276
0.0222852 0.220622 -0.19379
0.0232803 0.221654 -0.194227
0.0222756 0.221621 -0.193741
0.0222774 0.222145 -0.194216
0.0224609 0.203692 -0.195612
0.0224722 0.203217 -0.196136
0.0234656 0.203725 -0.196098
0.023456 0.204724 -0.19605
0.0224513 0.204691 -0.195564
0.0234464 0.205722 -0.196001
0.0234369 0.206721 -0.195953
0.0234273 0.20772 -0.195904
0.0234178 0.208719 -0.195856
0.0234082 0.209718 -0.195807
0.0233986 0.210716 -0.195759
0.0233891 0.211715 -0.19571
0.0233795 0.212714 -0.195662
0.02337 0.213713 -0.195613
0.0233604 0.214712 -0.195565
0.0233508 0.21571 -0.195517
0.0233413 0.216709 -0.195468
0.0233317 0.217708 -0.19542
0.0233221 0.218707 -0.195371
0.0233126 0.219705 -0.195323
0.023303 0.220704 -0.195274
0.0232935 0.221703 -0.195226
0.0222906 0.222193 -0.195215
0.0234787 0.203774 -0.197097
0.0224854 0.203265 -0.197135
0.0234692 0.204772 -0.197048
0.0234596 0.205771 -0.197
0.02345 0.20677 -0.196951
0.0234405 0.207769 -0.196903
0.0234309 0.208767 -0.196854
0.0234214 0.209766 -0.196806
0.0234118 0.210765 -0.196758
0.0234022 0.211764 -0.196709
0.0233927 0.212763 -0.196661
0.0233831 0.213761 -0.196612
0.0233736 0.21476 -0.196564
0.023364 0.215759 -0.196515
0.0233544 0.216758 -0.196467
0.0233449 0.217756 -0.196418
0.0233353 0.218755 -0.19637
0.0233257 0.219754 -0.196321
0.0233162 0.220753 -0.196273
0.0223019 0.221718 -0.195739
0.0223133 0.221243 -0.196262
0.0224872 0.203789 -0.19761
0.022489 0.204313 -0.198085
0.0234823 0.204821 -0.198047
0.0234728 0.20582 -0.197999
0.0234632 0.206818 -0.19795
0.0234536 0.207817 -0.197902
0.0234441 0.208816 -0.197853
0.0234345 0.209815 -0.197805
0.023425 0.210814 -0.197756
0.0234154 0.211812 -0.197708
0.0234058 0.212811 -0.197659
0.0233963 0.21381 -0.197611
0.0233867 0.214809 -0.197562
0.0233772 0.215807 -0.197514
0.0233676 0.216806 -0.197466
0.023358 0.217805 -0.197417
0.0223438 0.218771 -0.196883
0.0223551 0.218295 -0.197406
0.0223342 0.219769 -0.196834
0.0223246 0.220768 -0.196786
0.0224908 0.204836 -0.19856
0.0224926 0.20536 -0.199035
0.0234859 0.205868 -0.198997
0.0234764 0.206867 -0.198949
0.0234668 0.207866 -0.1989
0.0234572 0.208865 -0.198852
0.0234477 0.209863 -0.198803
0.0234381 0.210862 -0.198755
0.0234286 0.211861 -0.198707
0.023419 0.21286 -0.198658
0.0234094 0.213858 -0.19861
0.0233999 0.214857 -0.198561
0.0233903 0.215856 -0.198513
0.0223761 0.216822 -0.197979
0.0223874 0.216347 -0.198502
0.0223665 0.21782 -0.19793
0.0221944 0.235798 -0.197058
0.0222057 0.235323 -0.197582
0.0221848 0.236797 -0.19701
0.0221753 0.237796 -0.196961
0.0221657 0.238795 -0.196913
0.0221561 0.239794 -0.196864
0.0221579 0.240317 -0.197339
0.0224944 0.205884 -0.19951
0.0224848 0.206882 -0.199462
0.0224866 0.207406 -0.199937
0.02348 0.207914 -0.199899
0.0234704 0.208913 -0.199851
0.0234608 0.209912 -0.199802
0.0234513 0.210911 -0.199754
0.0234417 0.211909 -0.199705
0.0234322 0.212908 -0.199657
0.0234226 0.213907 -0.199608
0.0224083 0.214873 -0.199074
0.0224197 0.214398 -0.199598
0.0223988 0.215871 -0.199026
0.0222171 0.234848 -0.198105
0.0222285 0.234373 -0.198629
0.0221597 0.240841 -0.197814
0.0231549 0.241873 -0.198252
0.0221502 0.24184 -0.197766
0.022152 0.242363 -0.198241
0.0224884 0.20793 -0.200412
0.0224789 0.208929 -0.200364
0.0224693 0.209927 -0.200315
0.0224597 0.210926 -0.200267
0.0224502 0.211925 -0.200218
0.0224406 0.212924 -0.20017
0.0224311 0.213922 -0.200121
0.0222416 0.234422 -0.199627
0.0231585 0.24292 -0.199202
0.0221538 0.242887 -0.198716
0.0221556 0.243411 -0.199191
0.0232481 0.234979 -0.200588
0.0222548 0.23447 -0.200626
0.0231716 0.242969 -0.200201
0.0221687 0.243459 -0.20019
0.0232613 0.235027 -0.201587
0.0222679 0.234519 -0.201625
0.0231848 0.243017 -0.2012
0.0221819 0.243508 -0.201189
0.0232744 0.235076 -0.202586
0.0222811 0.234567 -0.202624
0.0222046 0.242558 -0.202236
0.0221933 0.243033 -0.201712
0.0222829 0.235091 -0.203099
0.0222847 0.235615 -0.203574
0.023278 0.236123 -0.203536
0.0222178 0.242606 -0.203235
0.0232912 0.236172 -0.204535
0.0222979 0.235663 -0.204573
0.0232338 0.242164 -0.204244
0.0222309 0.242655 -0.204234
0.0222997 0.236187 -0.205048
0.0223015 0.236711 -0.205523
0.0232948 0.237219 -0.205485
0.0222537 0.241705 -0.205281
0.0222423 0.24218 -0.204757
0.023308 0.237268 -0.206484
0.0223146 0.236759 -0.206522
0.0232697 0.241263 -0.20629
0.0222668 0.241753 -0.206279
0.0223164 0.237283 -0.206997
0.0223182 0.237807 -0.207472
0.0233116 0.238315 -0.207434
0.023302 0.239314 -0.207386
0.0222991 0.239804 -0.207375
0.0222877 0.240279 -0.206851
0.0222782 0.241278 -0.206803
0.02232 0.23833 -0.207947
0.0223105 0.239329 -0.207899
0.0226428 0.207465 -0.211447
0.0226541 0.20699 -0.21197
0.0236475 0.207498 -0.211932
0.0236379 0.208497 -0.211884
0.0226332 0.208464 -0.211398
0.0236283 0.209496 -0.211835
0.0226236 0.209463 -0.21135
0.0236188 0.210495 -0.211787
0.0226141 0.210462 -0.211301
0.0236092 0.211494 -0.211739
0.0226045 0.21146 -0.211253
0.0235997 0.212492 -0.21169
0.022595 0.212459 -0.211204
0.0235901 0.213491 -0.211642
0.0225854 0.213458 -0.211156
0.0235805 0.21449 -0.211593
0.0225758 0.214457 -0.211107
0.023571 0.215489 -0.211545
0.0225663 0.215456 -0.211059
0.0225681 0.215979 -0.211534
0.0226942 0.203519 -0.212639
0.0227055 0.203044 -0.213163
0.0236989 0.203552 -0.213125
0.0236893 0.204551 -0.213076
0.0226846 0.204518 -0.212591
0.0236798 0.205549 -0.213028
0.0226751 0.205516 -0.212542
0.0236702 0.206548 -0.21298
0.0226655 0.206515 -0.212494
0.0236606 0.207547 -0.212931
0.0236511 0.208546 -0.212883
0.0236415 0.209545 -0.212834
0.0236319 0.210543 -0.212786
0.0236224 0.211542 -0.212737
0.0236128 0.212541 -0.212689
0.0236033 0.21354 -0.21264
0.0235937 0.214539 -0.212592
0.0235841 0.215537 -0.212543
0.0225699 0.216503 -0.212009
0.0235746 0.216536 -0.212495
0.0225717 0.217027 -0.212484
0.0227551 0.198573 -0.21388
0.0227665 0.198098 -0.214404
0.0237598 0.198607 -0.214366
0.0237503 0.199605 -0.214317
0.0227456 0.199572 -0.213832
0.022736 0.200571 -0.213783
0.0227265 0.20157 -0.213735
0.0227169 0.202569 -0.213686
0.0236738 0.207596 -0.21393
0.0236642 0.208594 -0.213881
0.0236547 0.209593 -0.213833
0.0236451 0.210592 -0.213784
0.0236355 0.211591 -0.213736
0.023626 0.21259 -0.213688
0.0236164 0.213588 -0.213639
0.0236069 0.214587 -0.213591
0.0235973 0.215586 -0.213542
0.0235877 0.216585 -0.213494
0.0225735 0.21755 -0.21296
0.0235782 0.217583 -0.213445
0.0225753 0.218074 -0.213435
0.023773 0.198655 -0.215365
0.0227797 0.198147 -0.215402
0.0237634 0.199654 -0.215316
0.0236105 0.215634 -0.214541
0.0236009 0.216633 -0.214492
0.0235913 0.217632 -0.214444
0.0225771 0.218598 -0.21391
0.0235818 0.218631 -0.214396
0.0225789 0.219121 -0.214385
0.0237862 0.198704 -0.216363
0.0227928 0.198195 -0.216401
0.0237766 0.199703 -0.216315
0.0236045 0.217681 -0.215443
0.0235949 0.218679 -0.215394
0.022592 0.21917 -0.215384
0.0237993 0.198752 -0.217362
0.022806 0.198244 -0.2174
0.0237898 0.199751 -0.217314
0.0236081 0.218728 -0.216393
0.0225938 0.219694 -0.215859
0.0235985 0.219727 -0.216345
0.0225956 0.220217 -0.216334
0.0238125 0.198801 -0.218361
0.0228192 0.198293 -0.218399
0.0238029 0.1998 -0.218312
0.0236117 0.219775 -0.217343
0.0226088 0.220266 -0.217333
0.022821 0.198816 -0.218874
0.0228114 0.199815 -0.218825
0.0228018 0.200814 -0.218777
0.0227923 0.201813 -0.218728
0.0227827 0.202811 -0.21868
0.0227845 0.203335 -0.219155
0.0237778 0.203843 -0.219117
0.0237683 0.204842 -0.219069
0.0237587 0.205841 -0.21902
0.0236249 0.219824 -0.218342
0.0226106 0.220789 -0.217808
0.0236153 0.220823 -0.218294
0.0226124 0.221313 -0.218283
0.0227863 0.203859 -0.21963
0.0227767 0.204858 -0.219582
0.0227672 0.205856 -0.219533
0.0227576 0.206855 -0.219485
0.0227481 0.207854 -0.219436
0.0227385 0.208853 -0.219388
0.0227289 0.209851 -0.21934
0.0227307 0.210375 -0.219815
0.0237241 0.210883 -0.219777
0.0236285 0.220871 -0.219292
0.0226256 0.221362 -0.219282
0.0227325 0.210899 -0.22029
0.022723 0.211898 -0.220241
0.0227134 0.212896 -0.220193
0.0227152 0.21342 -0.220668
0.0237085 0.213928 -0.22063
0.0236512 0.219921 -0.22034
0.0236416 0.22092 -0.220291
0.0226387 0.22141 -0.22028
0.022717 0.213944 -0.221143
0.0227074 0.214942 -0.221095
0.0226979 0.215941 -0.221046
0.0226883 0.21694 -0.220998
0.0226901 0.217464 -0.221473
0.0236835 0.217972 -0.221435
0.0236739 0.218971 -0.221387
0.0236643 0.21997 -0.221338
0.0236548 0.220968 -0.22129
0.0226519 0.221459 -0.221279
0.0226919 0.217987 -0.221948
0.0226824 0.218986 -0.2219
0.0226728 0.219985 -0.221851
0.0226632 0.220984 -0.221803
0.0204288 0.204576 -0.193593
0.0204401 0.2041 -0.194117
0.0214334 0.204609 -0.194079
0.0214239 0.205608 -0.194031
0.0204192 0.205574 -0.193545
0.0214143 0.206606 -0.193982
0.0204096 0.206573 -0.193497
0.0214048 0.207605 -0.193934
0.0204001 0.207572 -0.193448
0.0204019 0.208096 -0.193923
0.0203331 0.214563 -0.193109
0.0203445 0.214088 -0.193633
0.0213378 0.214597 -0.193595
0.0213283 0.215595 -0.193546
0.0203236 0.215562 -0.19306
0.0213187 0.216594 -0.193498
0.020314 0.216561 -0.193012
0.0213091 0.217593 -0.193449
0.0203044 0.21756 -0.192964
0.0212996 0.218592 -0.193401
0.0202949 0.218559 -0.192915
0.02129 0.21959 -0.193352
0.0202853 0.219557 -0.192867
0.0212805 0.220589 -0.193304
0.0202758 0.220556 -0.192818
0.0212709 0.221588 -0.193256
0.0202662 0.221555 -0.19277
0.0212613 0.222587 -0.193207
0.0202566 0.222554 -0.192721
0.0212518 0.223586 -0.193159
0.0202471 0.223552 -0.192673
0.0202489 0.224076 -0.193148
0.0204897 0.19963 -0.194834
0.0205011 0.199155 -0.195358
0.0214944 0.199663 -0.19532
0.0214849 0.200662 -0.195272
0.0204802 0.200629 -0.194786
0.0214753 0.201661 -0.195223
0.0204706 0.201628 -0.194738
0.0214657 0.20266 -0.195175
0.020461 0.202627 -0.194689
0.0214562 0.203659 -0.195126
0.0204515 0.203625 -0.194641
0.0214466 0.204657 -0.195078
0.0204037 0.208619 -0.194398
0.0203941 0.209618 -0.19435
0.0203845 0.210617 -0.194301
0.020375 0.211616 -0.194253
0.0203654 0.212614 -0.194205
0.0203559 0.213613 -0.194156
0.0212745 0.222635 -0.194206
0.0212649 0.223634 -0.194157
0.0202507 0.2246 -0.193623
0.0212554 0.224633 -0.194109
0.0202525 0.225123 -0.194098
0.0215076 0.199712 -0.196319
0.0205142 0.199204 -0.196357
0.021498 0.200711 -0.196271
0.0214885 0.20171 -0.196222
0.0214789 0.202708 -0.196174
0.0212877 0.222684 -0.195205
0.0212781 0.223683 -0.195156
0.0202638 0.224648 -0.194622
0.0202752 0.224173 -0.195145
0.020516 0.199727 -0.196832
0.0205178 0.200251 -0.197307
0.0215112 0.200759 -0.197269
0.0215016 0.201758 -0.197221
0.0214921 0.202757 -0.197172
0.0213104 0.221734 -0.196252
0.0213008 0.222733 -0.196203
0.0212913 0.223731 -0.196155
0.0202884 0.224222 -0.196144
0.0215243 0.200808 -0.198268
0.020531 0.2003 -0.198306
0.0215148 0.201807 -0.19822
0.0215052 0.202806 -0.198171
0.0214957 0.203804 -0.198123
0.0213522 0.218786 -0.197396
0.0213427 0.219785 -0.197347
0.0213331 0.220784 -0.197299
0.0213235 0.221782 -0.19725
0.021314 0.222781 -0.197202
0.0202997 0.223747 -0.196668
0.0203111 0.223272 -0.197191
0.0201754 0.236731 -0.196038
0.0201868 0.236256 -0.196562
0.0211801 0.236764 -0.196524
0.0211706 0.237763 -0.196475
0.0201659 0.23773 -0.195989
0.021161 0.238762 -0.196427
0.0201563 0.238728 -0.195941
0.0211514 0.23976 -0.196378
0.0201467 0.239727 -0.195893
0.0201485 0.240251 -0.196368
0.0205328 0.200823 -0.198781
0.0205346 0.201347 -0.199256
0.0215279 0.201855 -0.199218
0.0215184 0.202854 -0.19917
0.0215088 0.203853 -0.199121
0.0214993 0.204852 -0.199073
0.0213845 0.216837 -0.198491
0.021375 0.217836 -0.198443
0.0213654 0.218835 -0.198395
0.0213558 0.219833 -0.198346
0.0213463 0.220832 -0.198298
0.0213367 0.221831 -0.198249
0.0213271 0.22283 -0.198201
0.0203242 0.22332 -0.19819
0.0202173 0.233783 -0.197182
0.0202286 0.233308 -0.197706
0.021222 0.233816 -0.197668
0.0212124 0.234815 -0.197619
0.0202077 0.234782 -0.197134
0.0201981 0.235781 -0.197085
0.021155 0.240808 -0.197329
0.0201503 0.240775 -0.196843
0.0211455 0.241806 -0.19728
0.0201408 0.241773 -0.196794
0.0211359 0.242805 -0.197232
0.0201312 0.242772 -0.196746
0.020133 0.243296 -0.197221
0.0205364 0.201871 -0.199731
0.0205382 0.202394 -0.200206
0.0215315 0.202903 -0.200169
0.021522 0.203901 -0.20012
0.0215124 0.2049 -0.200072
0.0215029 0.205899 -0.200023
0.0214933 0.206898 -0.199975
0.0214168 0.214888 -0.199587
0.0214072 0.215887 -0.199539
0.0213977 0.216886 -0.19949
0.0213881 0.217884 -0.199442
0.0213786 0.218883 -0.199393
0.021369 0.219882 -0.199345
0.0213594 0.220881 -0.199296
0.0213499 0.221879 -0.199248
0.0203356 0.222845 -0.198714