<VTKFile type="UnstructuredGrid" version="0.1" byte_order="BigEndian">
  <UnstructuredGrid>
    <Piece NumberOfPoints="13608" NumberOfCells="27216">
      <PointData>
        <DataArray type="Float64" Name="position" NumberOfComponents="3" format="ascii">
0.0386358 0.242618 -0.19847
0.0386488 0.242142 -0.198992
0.0396424 0.242649 -0.198952
0.0386399 0.24314 -0.198947
0.0386618 0.241665 -0.199514
0.0386748 0.241188 -0.200036
0.0396684 0.241695 -0.199996
0.0396596 0.242694 -0.199951
0.0386571 0.243185 -0.199946
0.0396856 0.24174 -0.200995
0.0386919 0.241233 -0.201035
0.0396767 0.242739 -0.20095
0.0386742 0.24323 -0.200945
0.0397027 0.241785 -0.201993
0.0387091 0.241278 -0.202033
0.0396939 0.242784 -0.201949
0.0386914 0.243275 -0.201944
0.0397199 0.24183 -0.202992
0.0387262 0.241322 -0.203032
0.039711 0.242829 -0.202947
0.0387085 0.24332 -0.202943
0.0387304 0.241844 -0.203509
0.0387345 0.242366 -0.203986
0.0397282 0.242874 -0.203946
0.0387257 0.243365 -0.203941
0.0387387 0.242888 -0.204463
0.036597 0.241468 -0.195553
0.03661 0.240992 -0.196075
0.0376036 0.241499 -0.196035
0.0366012 0.24199 -0.19603
0.036623 0.240515 -0.196597
0.036636 0.240038 -0.197119
0.0376296 0.240545 -0.197079
0.0376208 0.241544 -0.197034
0.0366053 0.242512 -0.196507
0.037612 0.242543 -0.196989
0.0366095 0.243034 -0.196985
0.0376468 0.24059 -0.198078
0.0366531 0.240083 -0.198118
0.037638 0.241589 -0.198033
0.0376291 0.242588 -0.197988
0.0366266 0.243079 -0.197983
0.037664 0.240635 -0.199077
0.0366703 0.240128 -0.199117
0.0376551 0.241634 -0.199032
0.0376374 0.243632 -0.198942
0.0366308 0.243601 -0.19846
0.036635 0.244123 -0.198937
0.0376811 0.24068 -0.200076
0.0366875 0.240172 -0.200116
0.0376546 0.243677 -0.199941
0.0366521 0.244168 -0.199936
0.0376983 0.240725 -0.201074
0.0367046 0.240217 -0.201114
0.0376718 0.243722 -0.20094
0.0366693 0.244213 -0.200935
0.0377154 0.24077 -0.202073
0.0367218 0.240262 -0.202113
0.0376889 0.243767 -0.201939
0.0366864 0.244258 -0.201934
0.0377326 0.240815 -0.203072
0.0367389 0.240307 -0.203112
0.0377061 0.243812 -0.202938
0.0367036 0.244303 -0.202933
0.0377497 0.24086 -0.204071
0.0367561 0.240352 -0.204111
0.0377409 0.241859 -0.204026
0.0377232 0.243857 -0.203936
0.0367207 0.244348 -0.203932
0.0367602 0.240874 -0.204588
0.0367644 0.241396 -0.205065
0.0377581 0.241904 -0.205025
0.0377492 0.242903 -0.20498
0.0377404 0.243902 -0.204935
0.0367379 0.244393 -0.20493
0.0367686 0.241918 -0.205542
0.0367597 0.242917 -0.205497
0.0367509 0.243916 -0.205452
0.0346185 0.239455 -0.195678
0.0346315 0.238978 -0.1962
0.0356252 0.239485 -0.19616
0.0356164 0.240484 -0.196115
0.0346097 0.240453 -0.195633
0.0346009 0.241452 -0.195589
0.034605 0.241974 -0.196066
0.0346445 0.238501 -0.196722
0.0346575 0.238024 -0.197244
0.0356512 0.238531 -0.197204
0.0356423 0.23953 -0.197159
0.0356158 0.242527 -0.197024
0.0346222 0.242019 -0.197064
0.0356683 0.238576 -0.198203
0.0346747 0.238069 -0.198243
0.0356595 0.239575 -0.198158
0.0346263 0.242541 -0.197541
0.0346305 0.243063 -0.198018
0.0356855 0.238621 -0.199201
0.0346918 0.238114 -0.199241
0.0356767 0.23962 -0.199157
0.0356413 0.243616 -0.198977
0.0346477 0.243108 -0.199017
0.034696 0.238635 -0.199718
0.0347002 0.239157 -0.200195
0.0356938 0.239665 -0.200155
0.0346518 0.24363 -0.199494
0.034656 0.244152 -0.199971
0.035711 0.23971 -0.201154
0.0347173 0.239202 -0.201194
0.0346731 0.244197 -0.20097
0.0357281 0.239755 -0.202153
0.0347345 0.239247 -0.202193
0.0346903 0.244242 -0.201969
0.0357453 0.2398 -0.203152
0.0347516 0.239292 -0.203192
0.0347075 0.244287 -0.202968
0.0347558 0.239814 -0.203669
0.03476 0.240336 -0.204146
0.0347246 0.244332 -0.203967
0.0357708 0.240889 -0.205105
0.0347771 0.240381 -0.205145
0.0347418 0.244377 -0.204965
0.0347813 0.240903 -0.205622
0.0347724 0.241902 -0.205577
0.0347766 0.242424 -0.206054
0.0357702 0.242932 -0.206014
0.0347678 0.243423 -0.206009
0.0347548 0.2439 -0.205487
0.0347808 0.242946 -0.206531
0.0326401 0.237441 -0.195803
0.0326531 0.236964 -0.196325
0.0336467 0.237471 -0.196285
0.0336379 0.23847 -0.19624
0.0326313 0.238439 -0.195758
0.0326224 0.239438 -0.195713
0.0326266 0.23996 -0.19619
0.0336202 0.240468 -0.19615
0.0336114 0.241467 -0.196105
0.0336639 0.237516 -0.197284
0.0326702 0.237009 -0.197324
0.0326307 0.240482 -0.196667
0.0326219 0.241481 -0.196622
0.0326261 0.242003 -0.197099
0.033681 0.237561 -0.198282
0.0326874 0.237053 -0.198322
0.0336369 0.242556 -0.198058
0.0326432 0.242048 -0.198098
0.0326916 0.237575 -0.198799
0.0326957 0.238097 -0.199276
0.0326474 0.24257 -0.198575
0.0326515 0.243092 -0.199052
0.0337065 0.23865 -0.200235
0.0327129 0.238142 -0.200275
0.0336623 0.243645 -0.200011
0.0326687 0.243137 -0.200051
0.0337237 0.238695 -0.201234
0.03273 0.238187 -0.201274
0.0326729 0.243659 -0.200528
0.032677 0.244181 -0.201005
0.0337408 0.23874 -0.202233
0.0327472 0.238232 -0.202273
0.0326942 0.244226 -0.202004
0.0327514 0.238754 -0.20275
0.0327555 0.239276 -0.203227
0.0327113 0.244271 -0.203003
0.0337663 0.239829 -0.204186
0.0327727 0.239321 -0.204226
0.0327285 0.244316 -0.204002
0.0337835 0.239874 -0.205185
0.0327898 0.239366 -0.205225
0.0327545 0.243362 -0.205045
0.0327415 0.243839 -0.204523
0.0337481 0.24387 -0.205005
0.032794 0.239888 -0.205702
0.0327981 0.24041 -0.206179
0.0337918 0.240918 -0.206139
0.0337829 0.241917 -0.206094
0.0327805 0.242408 -0.206089
0.0327675 0.242885 -0.205567
0.0337741 0.242916 -0.206049
0.0328023 0.240932 -0.206656
0.0327935 0.241931 -0.206611
0.030644 0.237424 -0.195838
0.030657 0.236947 -0.19636
0.0306351 0.238423 -0.195793
0.0306393 0.238945 -0.19627
0.0316329 0.239453 -0.19623
0.03067 0.23647 -0.196882
0.030683 0.235993 -0.197403
0.0316766 0.236501 -0.197363
0.0306434 0.239467 -0.196747
0.0306346 0.240466 -0.196702
0.0306388 0.240988 -0.197179
0.0316324 0.241496 -0.197139
0.0316938 0.236546 -0.198362
0.0307001 0.236038 -0.198402
0.0306429 0.24151 -0.197656
0.0306471 0.242032 -0.198133
0.0317109 0.236591 -0.199361
0.0307173 0.236083 -0.199401
0.0317021 0.23759 -0.199316
0.0306512 0.242554 -0.19861
0.0306554 0.243076 -0.199087
0.0307214 0.236605 -0.199878
0.0307256 0.237127 -0.200355
0.0317192 0.237635 -0.200315
0.0306726 0.243121 -0.200086
0.0317364 0.23768 -0.201314
0.0307427 0.237172 -0.201354
0.0316834 0.243674 -0.201045
0.0306897 0.243166 -0.201085
0.0307469 0.237694 -0.201831
0.0307511 0.238216 -0.202308
0.0317005 0.243719 -0.202044
0.0307069 0.243211 -0.202084
0.0317619 0.238769 -0.203267
0.0307682 0.238261 -0.203307
0.0317177 0.243764 -0.203043
0.030724 0.243256 -0.203083
0.031779 0.238814 -0.204266
0.0307854 0.238306 -0.204306
0.0317348 0.243809 -0.204041
0.0307412 0.243301 -0.204081
0.0307895 0.238828 -0.204783
0.0307937 0.23935 -0.20526
0.0307672 0.242347 -0.205125
0.0307542 0.242824 -0.204603
0.0317608 0.242855 -0.205085
0.0318045 0.239903 -0.206219
0.0308108 0.239395 -0.206258
0.0307932 0.241393 -0.206169
0.0307802 0.24187 -0.205647
0.0317868 0.241901 -0.206129
0.030815 0.239917 -0.206735
0.0308062 0.240916 -0.206691
0.0296545 0.237439 -0.196355
0.0296456 0.238438 -0.19631
0.0286738 0.236454 -0.196917
0.0286868 0.235977 -0.197438
0.028665 0.237453 -0.196872
0.0286562 0.238452 -0.196827
0.0286603 0.238974 -0.197304
0.029654 0.239482 -0.197264
0.0296451 0.240481 -0.197219
0.028704 0.236022 -0.198437
0.0286645 0.239496 -0.197781
0.0286556 0.240495 -0.197736
0.0286598 0.241017 -0.198213
0.0296534 0.241525 -0.198173
0.0287211 0.236067 -0.199436
0.028664 0.241539 -0.19869
0.0286681 0.242061 -0.199167
0.0296618 0.242569 -0.199127
0.0297319 0.23662 -0.200395
0.0287383 0.236112 -0.200435
0.0286723 0.242583 -0.199644
0.0286764 0.243105 -0.200121
0.0287425 0.236634 -0.200912
0.0287466 0.237156 -0.201389
0.0286936 0.24315 -0.20112
0.0297574 0.237709 -0.202348
0.0287638 0.237201 -0.202388
0.0287107 0.243195 -0.202119
0.0297746 0.237754 -0.203347
0.0287809 0.237246 -0.203387
0.0287367 0.242241 -0.203162
0.0287237 0.242718 -0.202641
0.0297304 0.242749 -0.203122
0.0287851 0.237768 -0.203864
0.0287892 0.23829 -0.204341
0.0297475 0.242794 -0.204121
0.0287539 0.242286 -0.204161
0.0298 0.238843 -0.2053
0.0288064 0.238335 -0.205339
0.0287799 0.241332 -0.205205
0.0287669 0.241809 -0.204683
0.0297735 0.24184 -0.205165
0.0288106 0.238857 -0.205816
0.0288147 0.239379 -0.206293
0.028797 0.241377 -0.206204
0.0288189 0.239901 -0.20677
0.02881 0.2409 -0.206726
0.0266865 0.235439 -0.196996
0.0266995 0.234962 -0.197518
0.0276932 0.23547 -0.197478
0.0266777 0.236438 -0.196952
0.0266689 0.237437 -0.196907
0.02666 0.238436 -0.196862
0.0266642 0.238958 -0.197339
0.0277103 0.235515 -0.198477
0.0267167 0.235007 -0.198517
0.0266683 0.23948 -0.197816
0.0266595 0.240479 -0.197771
0.0266637 0.241001 -0.198248
0.0277275 0.23556 -0.199476
0.0267338 0.235052 -0.199516
0.0266678 0.241523 -0.198725
0.026672 0.242045 -0.199202
0.026738 0.235574 -0.199993
0.0267422 0.236096 -0.20047
0.0276828 0.242597 -0.200161
0.0266891 0.24209 -0.200201
0.027753 0.236649 -0.201429
0.0267593 0.236141 -0.201469
0.0276999 0.242642 -0.20116
0.0267063 0.242135 -0.2012
0.0277701 0.236694 -0.202428
0.0267765 0.236186 -0.202468
0.0277171 0.242687 -0.202159
0.0267235 0.24218 -0.202199
0.0267806 0.236708 -0.202945
0.0267848 0.23723 -0.203422
0.0267406 0.242225 -0.203197
0.0277956 0.237783 -0.204381
0.026802 0.237275 -0.20442
0.0267666 0.241271 -0.204241
0.0267536 0.241748 -0.203719
0.0277602 0.241778 -0.204201
0.0278128 0.237828 -0.205379
0.0268191 0.23732 -0.205419
0.0267838 0.241316 -0.20524
0.0268233 0.237842 -0.205896
0.0268274 0.238364 -0.206373
0.0278211 0.238872 -0.206333
0.0268098 0.240362 -0.206284
0.0267968 0.240839 -0.205762
0.0278034 0.240869 -0.206244
0.0268316 0.238886 -0.20685
0.0268228 0.239885 -0.206805
0.0272438 0.204192 -0.214413
0.0272568 0.203716 -0.214934
0.0282505 0.204223 -0.214895
0.0282416 0.205222 -0.21485
0.027235 0.205191 -0.214368
0.0282328 0.206221 -0.214805
0.0272261 0.20619 -0.214323
0.0272303 0.206712 -0.2148
0.0272698 0.203239 -0.215456
0.0272828 0.202762 -0.215978
0.0282765 0.203269 -0.215938
0.0282676 0.204268 -0.215893
0.0282588 0.205267 -0.215849
0.0282499 0.206266 -0.215804
0.0272345 0.207234 -0.215277
0.0282411 0.207265 -0.215759
0.0282323 0.208264 -0.215714
0.0272256 0.208233 -0.215232
0.0282234 0.209263 -0.215669
0.0272168 0.209232 -0.215187
0.027221 0.209754 -0.215664
0.0282936 0.203314 -0.216937
0.0273 0.202807 -0.216977
0.0282848 0.204313 -0.216892
0.0282759 0.205312 -0.216847
0.0282671 0.206311 -0.216803
0.0282583 0.20731 -0.216758
0.0282494 0.208309 -0.216713
0.0282406 0.209308 -0.216668
0.0272251 0.210276 -0.216141
0.0282318 0.210307 -0.216623
0.0282229 0.211306 -0.216578
0.0272163 0.211275 -0.216096
0.0282141 0.212305 -0.216534
0.0272074 0.212274 -0.216052
0.0282052 0.213304 -0.216489
0.0271986 0.213273 -0.216007
0.0272028 0.213795 -0.216484
0.0273041 0.203328 -0.217454
0.0272953 0.204327 -0.217409
0.0272994 0.204849 -0.217886
0.0282931 0.205357 -0.217846
0.0282843 0.206356 -0.217801
0.0282754 0.207355 -0.217757
0.0282666 0.208354 -0.217712
0.0282577 0.209353 -0.217667
0.0282489 0.210352 -0.217622
0.0282401 0.211351 -0.217577
0.0282312 0.21235 -0.217532
0.0282224 0.213349 -0.217488
0.0272069 0.214317 -0.216961
0.0282136 0.214348 -0.217443
0.0282047 0.215346 -0.217398
0.0271981 0.215316 -0.216916
0.0281959 0.216345 -0.217353
0.0271892 0.216315 -0.216871
0.0271934 0.216837 -0.217348
0.0273036 0.205371 -0.218363
0.0272948 0.20637 -0.218318
0.0272859 0.207369 -0.218273
0.0272771 0.208368 -0.218229
0.0272683 0.209367 -0.218184
0.0272594 0.210366 -0.218139
0.0272506 0.211365 -0.218094
0.0272547 0.211887 -0.218571
0.0282484 0.212395 -0.218531
0.0282396 0.213394 -0.218486
0.0282307 0.214393 -0.218442
0.0282219 0.215391 -0.218397
0.028213 0.21639 -0.218352
0.0271976 0.217359 -0.217825
0.0282042 0.217389 -0.218307
0.0272017 0.217881 -0.218302
0.0272589 0.212409 -0.219048
0.0272501 0.213408 -0.219003
0.0272542 0.21393 -0.21948
0.0282479 0.214437 -0.21944
0.028239 0.215436 -0.219396
0.0282302 0.216435 -0.219351
0.0282214 0.217434 -0.219306
0.0272189 0.217926 -0.219301
0.0272584 0.214452 -0.219957
0.0272496 0.215451 -0.219912
0.0272407 0.21645 -0.219868
0.0272319 0.217449 -0.219823
0.0246904 0.235423 -0.197031
0.0247034 0.234946 -0.197553
0.0246816 0.236422 -0.196987
0.0246727 0.237421 -0.196942
0.0246639 0.23842 -0.196897
0.0256617 0.23945 -0.197334
0.0246551 0.239419 -0.196852
0.0246592 0.239941 -0.197329
0.0247164 0.234469 -0.198075
0.0247294 0.233992 -0.198597
0.025723 0.2345 -0.198557
0.0246634 0.240463 -0.197806
0.0246675 0.240985 -0.198283
0.0257402 0.234545 -0.199556
0.0247466 0.234037 -0.199596
0.0246717 0.241507 -0.19876
0.0246759 0.242029 -0.199237
0.0247507 0.234559 -0.200073
0.0247549 0.235081 -0.20055
0.0257485 0.235589 -0.20051
0.024693 0.242074 -0.200236
0.0257657 0.235634 -0.201509
0.024772 0.235126 -0.201549
0.0247102 0.242119 -0.201235
0.0257828 0.235679 -0.202508
0.0247892 0.235171 -0.202547
0.0247273 0.242164 -0.202234
0.0247933 0.235693 -0.203024
0.0247975 0.236215 -0.203501
0.0257911 0.236723 -0.203462
0.0247445 0.242209 -0.203232
0.0258083 0.236768 -0.20446
0.0248147 0.23626 -0.2045
0.0247705 0.241255 -0.204276
0.0247575 0.241732 -0.203754
0.0248188 0.236782 -0.204977
0.024823 0.237304 -0.205454
0.0247876 0.2413 -0.205275
0.0258338 0.237857 -0.206413
0.0248401 0.237349 -0.206453
0.0248136 0.240346 -0.206319
0.0248006 0.240823 -0.205797
0.0248443 0.237871 -0.20693
0.0248355 0.23887 -0.206885
0.0248266 0.239869 -0.20684
0.0252659 0.200136 -0.213628
0.0252789 0.199659 -0.21415
0.0262725 0.200166 -0.21411
0.0262637 0.201165 -0.214065
0.025257 0.201135 -0.213583
0.0262549 0.202164 -0.21402
0.0252482 0.202134 -0.213538
0.026246 0.203163 -0.213976
0.0252394 0.203132 -0.213494
0.0262372 0.204162 -0.213931
0.0252305 0.204131 -0.213449
0.0262283 0.205161 -0.213886
0.0252217 0.20513 -0.213404
0.0262195 0.20616 -0.213841
0.0252129 0.206129 -0.213359
0.025217 0.206651 -0.213836
0.0262897 0.200211 -0.215109
0.025296 0.199704 -0.215149
0.0262808 0.20121 -0.215064
0.026272 0.202209 -0.215019
0.0262632 0.203208 -0.214974
0.0262278 0.207204 -0.214795
0.0252212 0.207173 -0.214313
0.026219 0.208203 -0.21475
0.0252123 0.208172 -0.214268
0.0262101 0.209202 -0.214705
0.0252035 0.209171 -0.214223
0.0262013 0.210201 -0.214661
0.0251947 0.21017 -0.214179
0.0261925 0.2112 -0.214616
0.0251858 0.211169 -0.214134
0.0261836 0.212199 -0.214571
0.025177 0.212168 -0.214089
0.0261748 0.213198 -0.214526
0.0251682 0.213167 -0.214044
0.026166 0.214196 -0.214481
0.0251593 0.214166 -0.213999
0.0251635 0.214688 -0.214476
0.0263068 0.200256 -0.216108
0.0253132 0.199749 -0.216148
0.026298 0.201255 -0.216063
0.0262892 0.202254 -0.216018
0.0262185 0.210246 -0.215659
0.0262096 0.211245 -0.215615
0.0262008 0.212244 -0.21557
0.026192 0.213243 -0.215525
0.0261831 0.214241 -0.21548
0.0251676 0.21521 -0.214953
0.0261743 0.21524 -0.215435
0.0261654 0.216239 -0.21539
0.0251588 0.216209 -0.214908
0.025163 0.216731 -0.215385
0.026324 0.200301 -0.217107
0.0253303 0.199794 -0.217147
0.0263152 0.2013 -0.217062
0.0263063 0.202299 -0.217017
0.0262003 0.214286 -0.216479
0.0261914 0.215285 -0.216434
0.0261826 0.216284 -0.216389
0.0251671 0.217253 -0.215862
0.0261738 0.217283 -0.216344
0.0251713 0.217775 -0.216339
0.0263411 0.200346 -0.218105
0.0253475 0.199839 -0.218145
0.0263323 0.201345 -0.218061
0.0263235 0.202344 -0.218016
0.0263146 0.203343 -0.217971
0.0263058 0.204342 -0.217926
0.0261909 0.217328 -0.217343
0.0251754 0.218297 -0.216816
0.0261821 0.218327 -0.217298
0.0251796 0.218819 -0.217293
0.0253517 0.200361 -0.218622
0.0253428 0.201359 -0.218578
0.025334 0.202358 -0.218533
0.0253252 0.203357 -0.218488
0.0253163 0.204356 -0.218443
0.0253075 0.205355 -0.218398
0.0253116 0.205877 -0.218875
0.0263053 0.206385 -0.218835
0.0262964 0.207384 -0.21879
0.0262876 0.208383 -0.218746
0.0262788 0.209382 -0.218701
0.0262699 0.210381 -0.218656
0.0262611 0.21138 -0.218611
0.0261992 0.218372 -0.218297
0.0251968 0.218864 -0.218292
0.0253158 0.206399 -0.219352
0.025307 0.207398 -0.219307
0.0252981 0.208397 -0.219263
0.0252893 0.209396 -0.219218
0.0252804 0.210395 -0.219173
0.0252846 0.210917 -0.21965
0.0262783 0.211425 -0.21961
0.0262694 0.212423 -0.219565
0.0262606 0.213422 -0.21952
0.0262164 0.218417 -0.219296
0.0252009 0.219386 -0.218769
0.0262076 0.219416 -0.219251
0.0252051 0.219908 -0.219246
0.0252888 0.211439 -0.220127
0.0252799 0.212438 -0.220082
0.0252711 0.213437 -0.220037
0.0252753 0.213959 -0.220514
0.0262689 0.214466 -0.220474
0.0262601 0.215465 -0.220429
0.0262512 0.216464 -0.220385
0.0262424 0.217463 -0.22034
0.0262335 0.218462 -0.220295
0.0252181 0.219431 -0.219768
0.0252311 0.218954 -0.22029
0.0252794 0.214481 -0.220991
0.0252706 0.21548 -0.220946
0.0252617 0.216479 -0.220901
0.0252529 0.217478 -0.220857
0.0252441 0.218477 -0.220812
0.0228908 0.205259 -0.194416
0.0229038 0.204782 -0.194938
0.0238974 0.205289 -0.194898
0.0238886 0.206288 -0.194853
0.0228819 0.206258 -0.194371
0.0238797 0.207287 -0.194808
0.0228731 0.207256 -0.194327
0.0238709 0.208286 -0.194764
0.0228643 0.208255 -0.194282
0.0238621 0.209285 -0.194719
0.0228554 0.209254 -0.194237
0.0238532 0.210284 -0.194674
0.0228466 0.210253 -0.194192
0.0238444 0.211283 -0.194629
0.0228377 0.211252 -0.194147
0.0238356 0.212282 -0.194584
0.0228289 0.212251 -0.194102
0.0238267 0.213281 -0.194539
0.0228201 0.21325 -0.194057
0.0238179 0.21428 -0.194495
0.0228112 0.214249 -0.194013
0.023809 0.215279 -0.19445
0.0228024 0.215248 -0.193968
0.0238002 0.216278 -0.194405
0.0227936 0.216247 -0.193923
0.0237914 0.217277 -0.19436
0.0227847 0.217246 -0.193878
0.0237825 0.218276 -0.194315
0.0227759 0.218245 -0.193833
0.0237737 0.219274 -0.19427
0.022767 0.219244 -0.193788
0.0237649 0.220273 -0.194226
0.0227582 0.220243 -0.193744
0.023756 0.221272 -0.194181
0.0227494 0.221242 -0.193699
0.0227535 0.221764 -0.194176
0.0229256 0.203306 -0.195505
0.0229386 0.202829 -0.196027
0.0239322 0.203336 -0.195987
0.0239234 0.204335 -0.195942
0.0229168 0.204305 -0.19546
0.0239146 0.205334 -0.195897
0.0239057 0.206333 -0.195852
0.0238969 0.207332 -0.195807
0.0238881 0.208331 -0.195762
0.0238792 0.20933 -0.195718
0.0238704 0.210329 -0.195673
0.0238615 0.211328 -0.195628
0.0238527 0.212327 -0.195583
0.0238439 0.213326 -0.195538
0.023835 0.214325 -0.195493
0.0238262 0.215324 -0.195449
0.0238174 0.216323 -0.195404
0.0238085 0.217322 -0.195359
0.0237997 0.21832 -0.195314
0.0237908 0.219319 -0.195269
0.023782 0.220318 -0.195224
0.0237732 0.221317 -0.19518
0.0227707 0.221809 -0.195175
0.0239494 0.203381 -0.196985
0.0229558 0.202874 -0.197025
0.0239406 0.20438 -0.196941
0.0239317 0.205379 -0.196896
0.0239229 0.206378 -0.196851
0.0239141 0.207377 -0.196806
0.0239052 0.208376 -0.196761
0.0238964 0.209375 -0.196716
0.0238875 0.210374 -0.196672
0.0238787 0.211373 -0.196627
0.0238699 0.212372 -0.196582
0.023861 0.213371 -0.196537
0.0238522 0.21437 -0.196492
0.0238434 0.215369 -0.196447
0.0238345 0.216368 -0.196403
0.0238257 0.217367 -0.196358
0.0238168 0.218365 -0.196313
0.023808 0.219364 -0.196268
0.0237992 0.220363 -0.196223
0.0227837 0.221332 -0.195696
0.0227967 0.220855 -0.196218
0.0229599 0.203396 -0.197502
0.0229641 0.203918 -0.197979
0.0239577 0.204425 -0.197939
0.0239489 0.205424 -0.197895
0.02394 0.206423 -0.19785
0.0239312 0.207422 -0.197805
0.0239224 0.208421 -0.19776
0.0239135 0.20942 -0.197715
0.0239047 0.210419 -0.19767
0.0238959 0.211418 -0.197626
0.023887 0.212417 -0.197581
0.0238782 0.213416 -0.197536
0.0238693 0.214415 -0.197491
0.0238605 0.215414 -0.197446
0.0238517 0.216413 -0.197401
0.0238428 0.217411 -0.197357
0.0228274 0.21838 -0.19683
0.0228404 0.217903 -0.197352
0.0228185 0.219379 -0.196785
0.0228097 0.220378 -0.19674
0.0229682 0.20444 -0.198456
0.0229724 0.204961 -0.198933
0.023966 0.205469 -0.198893
0.0239572 0.206468 -0.198849
0.0239484 0.207467 -0.198804
0.0239395 0.208466 -0.198759
0.0239307 0.209465 -0.198714
0.0239219 0.210464 -0.198669
0.023913 0.211463 -0.198624
0.0239042 0.212462 -0.19858
0.0238953 0.213461 -0.198535
0.0238865 0.21446 -0.19849
0.0238777 0.215459 -0.198445
0.0228622 0.216427 -0.197918
0.0228752 0.21595 -0.19844
0.0228533 0.217426 -0.197873
0.0226943 0.235407 -0.197066
0.0227073 0.23493 -0.197588
0.0226854 0.236406 -0.197022
0.0226766 0.237405 -0.196977
0.0226678 0.238404 -0.196932
0.0226589 0.239403 -0.196887
0.0226631 0.239925 -0.197364
0.0229765 0.205483 -0.19941
0.0229677 0.206482 -0.199366
0.0229719 0.207004 -0.199843
0.0239655 0.207512 -0.199803
0.0239567 0.208511 -0.199758
0.0239478 0.20951 -0.199713
0.023939 0.210509 -0.199668
0.0239302 0.211508 -0.199623
0.0239213 0.212507 -0.199578
0.0239125 0.213506 -0.199534
0.022897 0.214474 -0.199007
0.02291 0.213997 -0.199529
0.0228882 0.215473 -0.198962
0.0227203 0.234453 -0.19811
0.0227333 0.233976 -0.198632
0.0226672 0.240447 -0.197841
0.0236651 0.241476 -0.198278
0.0226584 0.241446 -0.197796
0.0226626 0.241968 -0.198273
0.022976 0.207526 -0.20032
0.0229672 0.208525 -0.200275
0.0229584 0.209524 -0.20023
0.0229495 0.210523 -0.200185
0.0229407 0.211522 -0.20014
0.0229318 0.212521 -0.200095
0.022923 0.21352 -0.200051
0.0227504 0.234021 -0.199631
0.0236734 0.24252 -0.199232
0.0226667 0.24249 -0.19875
0.0226709 0.243012 -0.199227
0.0237612 0.234574 -0.20059
0.0227676 0.234066 -0.20063
0.0236905 0.242565 -0.200231
0.022688 0.243057 -0.200226
0.0237784 0.234619 -0.201589
0.0227847 0.234111 -0.201628
0.0237077 0.24261 -0.20123
0.0227052 0.243102 -0.201225
0.0237955 0.234664 -0.202587
0.0228019 0.234156 -0.202627
0.0227312 0.242148 -0.202269
0.0227182 0.242625 -0.201747
0.0228061 0.234678 -0.203104
0.0228102 0.2352 -0.203581
0.0238039 0.235708 -0.203541
0.0227484 0.242193 -0.203267
0.023821 0.235753 -0.20454
0.0228274 0.235245 -0.20458
0.023768 0.241746 -0.204271
0.0227655 0.242238 -0.204266
0.0228315 0.235767 -0.205057
0.0228357 0.236289 -0.205534
0.0238293 0.236797 -0.205494
0.0227915 0.241284 -0.20531
0.0227785 0.241761 -0.204788
0.0238465 0.236841 -0.206493
0.0228528 0.236334 -0.206533
0.0238111 0.240837 -0.206314
0.0228087 0.241329 -0.206309
0.022857 0.236856 -0.20701
0.0228612 0.237378 -0.207487
0.0238548 0.237885 -0.207447
0.023846 0.238884 -0.207402
0.0228435 0.239376 -0.207397
0.0228305 0.239853 -0.206875
0.0228217 0.240852 -0.206831
0.0228653 0.2379 -0.207964
0.0228565 0.238899 -0.207919
0.0231736 0.207022 -0.211352
0.0231866 0.206545 -0.211873
0.0241802 0.207053 -0.211834
0.0241714 0.208052 -0.211789
0.0231647 0.208021 -0.211307
0.0241626 0.209051 -0.211744
0.0231559 0.20902 -0.211262
0.0241537 0.21005 -0.211699
0.0231471 0.210019 -0.211217
0.0241449 0.211049 -0.211654
0.0231382 0.211018 -0.211172
0.024136 0.212048 -0.211609
0.0231294 0.212017 -0.211127
0.0241272 0.213046 -0.211565
0.0231206 0.213016 -0.211083
0.0241184 0.214045 -0.21152
0.0231117 0.214015 -0.211038
0.0241095 0.215044 -0.211475
0.0231029 0.215014 -0.210993
0.023107 0.215536 -0.21147
0.0232261 0.203071 -0.21253
0.0232391 0.202594 -0.213052
0.0242327 0.203102 -0.213012
0.0242239 0.204101 -0.212967
0.0232173 0.20407 -0.212485
0.0242151 0.2051 -0.212922
0.0232084 0.205069 -0.21244
0.0242062 0.206099 -0.212877
0.0231996 0.206068 -0.212395
0.0241974 0.207098 -0.212832
0.0241885 0.208097 -0.212788
0.0241797 0.209096 -0.212743
0.0241709 0.210095 -0.212698
0.024162 0.211094 -0.212653
0.0241532 0.212093 -0.212608
0.0241444 0.213091 -0.212563
0.0241355 0.21409 -0.212519
0.0241267 0.215089 -0.212474
0.0231112 0.216058 -0.211947
0.0241178 0.216088 -0.212429
0.0231154 0.21658 -0.212424
0.0232874 0.198122 -0.213753
0.0233004 0.197645 -0.214275
0.0242941 0.198152 -0.214235
0.0242852 0.199151 -0.21419
0.0232786 0.199121 -0.213708
0.0232698 0.20012 -0.213663
0.0232609 0.201118 -0.213618
0.0232521 0.202117 -0.213573
0.0242145 0.207143 -0.213831
0.0242057 0.208142 -0.213786
0.0241969 0.209141 -0.213742
0.024188 0.21014 -0.213697
0.0241792 0.211139 -0.213652
0.0241704 0.212138 -0.213607
0.0241615 0.213136 -0.213562
0.0241527 0.214135 -0.213517
0.0241438 0.215134 -0.213473
0.024135 0.216133 -0.213428
0.0231195 0.217102 -0.212901
0.0241262 0.217132 -0.213383
0.0231237 0.217624 -0.213378
0.0243112 0.198197 -0.215234
0.0233176 0.19769 -0.215274
0.0243024 0.199196 -0.215189
0.024161 0.215179 -0.214471
0.0241522 0.216178 -0.214427
0.0241433 0.217177 -0.214382
0.0231278 0.218146 -0.213855
0.0241345 0.218176 -0.214337
0.023132 0.218668 -0.214332
0.0243284 0.198242 -0.216232
0.0233347 0.197735 -0.216272
0.0243195 0.199241 -0.216188
0.0241605 0.217222 -0.215381
0.0241516 0.218221 -0.215336
0.0231492 0.218713 -0.215331
0.0243455 0.198287 -0.217231
0.0233519 0.19778 -0.217271
0.0243367 0.199286 -0.217186
0.0241688 0.218266 -0.216335
0.0231533 0.219235 -0.215808
0.02416 0.219265 -0.21629
0.0231575 0.219757 -0.216285
0.0243627 0.198332 -0.21823
0.023369 0.197825 -0.21827
0.0243539 0.199331 -0.218185
0.0241771 0.21931 -0.217289
0.0231746 0.219802 -0.217284
0.0233732 0.198347 -0.218747
0.0233644 0.199345 -0.218702
0.0233555 0.200344 -0.218657
0.0233467 0.201343 -0.218613
0.0233379 0.202342 -0.218568
0.023342 0.202864 -0.219045
0.0243357 0.203372 -0.219005
0.0243268 0.204371 -0.21896
0.024318 0.20537 -0.218915
0.0241943 0.219355 -0.218287
0.0231788 0.220324 -0.217761
0.0241854 0.220354 -0.218243
0.023183 0.220845 -0.218238
0.0233462 0.203386 -0.219522
0.0233373 0.204385 -0.219477
0.0233285 0.205384 -0.219432
0.0233197 0.206383 -0.219387
0.0233108 0.207382 -0.219342
0.023302 0.208381 -0.219298
0.0232932 0.20938 -0.219253
0.0232973 0.209902 -0.21973
0.024291 0.210409 -0.21969
0.0242026 0.220399 -0.219241
0.0232001 0.22089 -0.219236
0.0233015 0.210424 -0.220207
0.0232926 0.211423 -0.220162
0.0232838 0.212422 -0.220117
0.023288 0.212944 -0.220594
0.0242816 0.213451 -0.220554
0.0242286 0.219445 -0.220285
0.0242197 0.220444 -0.22024
0.0232173 0.220935 -0.220235
0.0232921 0.213466 -0.221071
0.0232833 0.214465 -0.221026
0.0232744 0.215464 -0.220981
0.0232656 0.216463 -0.220936
0.0232698 0.216985 -0.221413
0.0242634 0.217492 -0.221374
0.0242546 0.218491 -0.221329
0.0242457 0.21949 -0.221284
0.0242369 0.220489 -0.221239
0.0232344 0.22098 -0.221234
0.0232739 0.217507 -0.22189
0.0232651 0.218506 -0.221846
0.0232563 0.219505 -0.221801
0.0232474 0.220503 -0.221756
0.0208863 0.204199 -0.193497
0.0208993 0.203722 -0.194019
0.021893 0.204229 -0.193979
0.0218841 0.205228 -0.193934
0.0208775 0.205197 -0.193452
0.0218753 0.206227 -0.193889
0.0208686 0.206196 -0.193408
0.0218665 0.207226 -0.193845
0.0208598 0.207195 -0.193363
0.020864 0.207717 -0.19384
0.020798 0.214188 -0.193049
0.0208109 0.213711 -0.193571
0.0218046 0.214219 -0.193531
0.0217958 0.215218 -0.193486
0.0207891 0.215187 -0.193004
0.0217869 0.216217 -0.193441
0.0207803 0.216186 -0.192959
0.0217781 0.217215 -0.193396
0.0207714 0.217185 -0.192914
0.0217692 0.218214 -0.193351
0.0207626 0.218184 -0.192869
0.0217604 0.219213 -0.193307
0.0207538 0.219183 -0.192825
0.0217516 0.220212 -0.193262
0.0207449 0.220182 -0.19278
0.0217427 0.221211 -0.193217
0.0207361 0.221181 -0.192735
0.0217339 0.22221 -0.193172
0.0207273 0.22218 -0.19269
0.0217251 0.223209 -0.193127
0.0207184 0.223179 -0.192645
0.0207226 0.223701 -0.193122
0.0209477 0.199249 -0.19472
0.0209607 0.198772 -0.195242
0.0219543 0.199279 -0.195202
0.0219455 0.200278 -0.195157
0.0209388 0.200248 -0.194675
0.0219366 0.201277 -0.195112
0.02093 0.201247 -0.194631
0.0219278 0.202276 -0.195068
0.0209212 0.202246 -0.194586
0.021919 0.203275 -0.195023
0.0209123 0.203245 -0.194541
0.0219101 0.204274 -0.194978
0.0208681 0.208239 -0.194317
0.0208593 0.209238 -0.194272
0.0208505 0.210237 -0.194227
0.0208416 0.211236 -0.194182
0.0208328 0.212235 -0.194137
0.0208239 0.213234 -0.194092
0.0217511 0.222255 -0.194171
0.0217422 0.223254 -0.194126
0.0207267 0.224223 -0.193599
0.0217334 0.224253 -0.194081
0.0207309 0.224745 -0.194076
0.0219715 0.199324 -0.196201
0.0209778 0.198817 -0.196241
0.0219626 0.200323 -0.196156
0.0219538 0.201322 -0.196111
0.021945 0.202321 -0.196066
0.0217682 0.2223 -0.19517
0.0217594 0.223299 -0.195125
0.0207439 0.224268 -0.194598
0.0207569 0.223791 -0.19512
0.020982 0.199339 -0.196718
0.0209861 0.199861 -0.197195
0.0219798 0.200368 -0.197155
0.0219709 0.201367 -0.19711
0.0219621 0.202366 -0.197065
0.0217942 0.221346 -0.196213
0.0217854 0.222345 -0.196169
0.0217765 0.223344 -0.196124
0.020774 0.223836 -0.196119
0.0219969 0.200413 -0.198154
0.0210033 0.199906 -0.198194
0.0219881 0.201412 -0.198109
0.0219793 0.202411 -0.198064
0.0219704 0.20341 -0.198019
0.0218379 0.218394 -0.197347
0.021829 0.219393 -0.197302
0.0218202 0.220392 -0.197257
0.0218114 0.221391 -0.197212
0.0218025 0.22239 -0.197167
0.020787 0.223359 -0.196641
0.0208 0.222882 -0.197162
0.0206722 0.236345 -0.196058
0.0206852 0.235868 -0.19658
0.0216788 0.236376 -0.19654
0.02167 0.237375 -0.196495
0.0206633 0.237344 -0.196013
0.0216611 0.238373 -0.19645
0.0206545 0.238343 -0.195968
0.0216523 0.239372 -0.196405
0.0206456 0.239342 -0.195923
0.0206498 0.239864 -0.1964
0.0210075 0.200428 -0.198671
0.0210116 0.20095 -0.199148
0.0220053 0.201457 -0.199108
0.0219964 0.202456 -0.199063
0.0219876 0.203455 -0.199018
0.0219787 0.204454 -0.198973
0.0218727 0.216441 -0.198435
0.0218639 0.21744 -0.19839
0.021855 0.218439 -0.198346
0.0218462 0.219438 -0.198301
0.0218374 0.220437 -0.198256
0.0218285 0.221436 -0.198211
0.0218197 0.222435 -0.198166
0.0208172 0.222927 -0.198161
0.0207158 0.233393 -0.197191
0.0207288 0.232916 -0.197713
0.0217225 0.233424 -0.197673
0.0217136 0.234423 -0.197628
0.020707 0.234392 -0.197146
0.0206982 0.235391 -0.197101
0.0216606 0.240416 -0.197359
0.020654 0.240386 -0.196877
0.0216518 0.241415 -0.197314
0.0206451 0.241385 -0.196832
0.0216429 0.242414 -0.197269
0.0206363 0.242384 -0.196788
0.0206405 0.242906 -0.197265
0.0210158 0.201472 -0.199625
0.0210199 0.201994 -0.200102
0.0220136 0.202501 -0.200062
0.0220047 0.2035 -0.200017
0.0219959 0.204499 -0.199972
0.0219871 0.205498 -0.199927
0.0219782 0.206497 -0.199882
0.0219075 0.214489 -0.199524
0.0218987 0.215487 -0.199479
0.0218899 0.216486 -0.199434
0.021881 0.217485 -0.199389
0.0218722 0.218484 -0.199344
0.0218633 0.219483 -0.1993
0.0218545 0.220482 -0.199255
0.0218457 0.221481 -0.19921
0.0208302 0.22245 -0.198683