<VTKFile type="UnstructuredGrid" version="0.1" byte_order="BigEndian">
  <UnstructuredGrid>
    <Piece NumberOfPoints="21372" NumberOfCells="42716">
      <PointData>
        <DataArray type="Float64" Name="position" NumberOfComponents="3" format="ascii">
0.0462811 0.223586 -0.106144
0.0462781 0.223112 -0.106669
0.0467744 0.223615 -0.10665
0.0467671 0.224614 -0.106599
0.0462738 0.224585 -0.106094
0.0467598 0.225613 -0.106549
0.0462665 0.225584 -0.106043
0.0467525 0.226611 -0.106498
0.0462593 0.226582 -0.105993
0.046249 0.227107 -0.106467
0.046761 0.223666 -0.107648
0.0462647 0.223162 -0.107667
0.0467537 0.224664 -0.107598
0.0467465 0.225663 -0.107548
0.0467392 0.226662 -0.107497
0.0462356 0.227157 -0.107465
0.0467477 0.223716 -0.108647
0.0462513 0.223213 -0.108666
0.0467404 0.224715 -0.108597
0.0467331 0.225713 -0.108546
0.0467258 0.226712 -0.108496
0.0462222 0.227207 -0.108464
0.0467343 0.223766 -0.109646
0.046238 0.223263 -0.109664
0.046727 0.224765 -0.109595
0.0467198 0.225764 -0.109545
0.0467125 0.226762 -0.109494
0.0462089 0.227258 -0.109463
0.0462277 0.223787 -0.110139
0.0462204 0.224786 -0.110088
0.0462131 0.225785 -0.110038
0.0462059 0.226784 -0.109987
0.0453079 0.223478 -0.104134
0.0453049 0.223003 -0.104658
0.0458012 0.223507 -0.10464
0.0457939 0.224505 -0.104589
0.0453006 0.224476 -0.104083
0.0457866 0.225504 -0.104539
0.0452934 0.225475 -0.104033
0.045283 0.225999 -0.104507
0.0453018 0.222529 -0.105183
0.0452988 0.222055 -0.105707
0.0457951 0.222558 -0.105689
0.0457878 0.223557 -0.105638
0.0457805 0.224556 -0.105588
0.0457733 0.225554 -0.105537
0.0452697 0.22605 -0.105506
0.0457817 0.222609 -0.106687
0.0452854 0.222105 -0.106706
0.0452563 0.2261 -0.106504
0.0457526 0.226603 -0.106486
0.0457684 0.222659 -0.107686
0.0452721 0.222156 -0.107705
0.0457393 0.226654 -0.107484
0.045243 0.22615 -0.107503
0.045755 0.222709 -0.108685
0.0452587 0.222206 -0.108703
0.0457259 0.226704 -0.108483
0.0452296 0.226201 -0.108502
0.0452484 0.22273 -0.109177
0.0452381 0.223255 -0.109651
0.0452236 0.225252 -0.109551
0.0452266 0.225727 -0.109026
0.0457199 0.225756 -0.109532
0.0457126 0.226754 -0.109481
0.0452351 0.222781 -0.110176
0.045232 0.222307 -0.110701
0.0457283 0.22281 -0.110682
0.0457211 0.223809 -0.110631
0.0457138 0.224807 -0.110581
0.0452102 0.225303 -0.110549
0.0452217 0.222831 -0.111175
0.0452144 0.22383 -0.111124
0.0452072 0.224829 -0.111074
0.0443153 0.222471 -0.104171
0.0443123 0.221997 -0.104696
0.0448086 0.2225 -0.104677
0.044308 0.22347 -0.104121
0.0443008 0.224468 -0.10407
0.0442904 0.224993 -0.104544
0.0447867 0.225496 -0.104526
0.0442989 0.222047 -0.105694
0.0447734 0.225546 -0.105524
0.0442771 0.225043 -0.105543
0.0442856 0.222097 -0.106693
0.04476 0.225597 -0.106523
0.0442637 0.225093 -0.106542
0.0442722 0.222148 -0.107692
0.0447467 0.225647 -0.107522
0.0442504 0.225144 -0.10754
0.0442589 0.222198 -0.10869
0.0442443 0.224195 -0.108589
0.0442473 0.22467 -0.108065
0.0447406 0.224699 -0.108571
0.0447333 0.225697 -0.10852
0.0447418 0.222752 -0.10967
0.0442455 0.222248 -0.109689
0.0447273 0.224749 -0.109569
0.044231 0.224246 -0.109588
0.0442321 0.222299 -0.110688
0.0442206 0.22477 -0.110062
0.0442103 0.225295 -0.110536
0.0442218 0.222823 -0.111162
0.0442146 0.223822 -0.111111
0.0442073 0.224821 -0.111061
0.0433288 0.222413 -0.10316
0.0433257 0.221938 -0.103684
0.043822 0.222442 -0.103665
0.0438148 0.22344 -0.103615
0.0433215 0.223411 -0.103109
0.0438075 0.224439 -0.103565
0.0433142 0.22441 -0.103059
0.0433039 0.224935 -0.103533
0.0433124 0.221989 -0.104683
0.0432906 0.224985 -0.104531
0.043299 0.222039 -0.105681
0.0432845 0.224037 -0.105581
0.0432875 0.224511 -0.105056
0.0437808 0.22454 -0.105562
0.043296 0.221565 -0.106206
0.0432929 0.221091 -0.10673
0.0437893 0.221594 -0.106712
0.0437674 0.22459 -0.10656
0.0432711 0.224087 -0.106579
0.0432826 0.221615 -0.107205
0.0432723 0.22214 -0.107679
0.0437541 0.22464 -0.107559
0.0432578 0.224137 -0.107578
0.043259 0.22219 -0.108677
0.0432444 0.224187 -0.108576
0.0432456 0.22224 -0.109676
0.0432311 0.224238 -0.109575
0.0432426 0.221766 -0.1102
0.0432395 0.221292 -0.110725
0.0437358 0.221795 -0.110706
0.0432208 0.224762 -0.110049
0.0432104 0.225287 -0.110523
0.0432292 0.221817 -0.111199
0.043222 0.222815 -0.111149
0.0432147 0.223814 -0.111098
0.0432074 0.224813 -0.111048
0.0428222 0.222434 -0.103652
0.0428149 0.223433 -0.103602
0.0428076 0.224431 -0.103552
0.0423228 0.221456 -0.104196
0.0423198 0.220982 -0.10472
0.0428161 0.221485 -0.104701
0.0423155 0.222455 -0.104145
0.0423083 0.223454 -0.104095
0.0427942 0.224482 -0.10455
0.0422979 0.223978 -0.104569
0.0428027 0.221536 -0.1057
0.0423064 0.221032 -0.105719
0.0422846 0.224029 -0.105568
0.0422931 0.221083 -0.106717
0.0422785 0.22308 -0.106617
0.0422816 0.223554 -0.106092
0.0427748 0.223584 -0.106598
0.042776 0.221636 -0.107697
0.0422797 0.221133 -0.107716
0.0422682 0.223605 -0.107091
0.0422579 0.224129 -0.107565
0.0427627 0.221687 -0.108696
0.0422664 0.221183 -0.108715
0.0422445 0.22418 -0.108563
0.0427493 0.221737 -0.109695
0.042253 0.221234 -0.109713
0.0422312 0.22423 -0.109562
0.0422397 0.221284 -0.110712
0.0427141 0.224784 -0.110542
0.0422178 0.22428 -0.110561
0.0422293 0.221809 -0.111186
0.0422221 0.222807 -0.111136
0.0422148 0.223806 -0.111085
0.0413302 0.22045 -0.104233
0.0413272 0.219975 -0.104758
0.0418235 0.220479 -0.104739
0.0413229 0.221448 -0.104183
0.0413156 0.222447 -0.104132
0.0413053 0.222972 -0.104606
0.0418016 0.223475 -0.104588
0.0418101 0.220529 -0.105738
0.0413138 0.220026 -0.105756
0.0417883 0.223525 -0.105586
0.041292 0.223022 -0.105605
0.0417968 0.220579 -0.106736
0.0413005 0.220076 -0.106755
0.0412786 0.223072 -0.106604
0.0417834 0.22063 -0.107735
0.0412871 0.220126 -0.107754
0.0417616 0.223626 -0.107584
0.0412653 0.223123 -0.107602
0.0417701 0.22068 -0.108733
0.0412737 0.220177 -0.108752
0.0417482 0.223676 -0.108582
0.0412519 0.223173 -0.108601
0.0417567 0.22073 -0.109732
0.0412604 0.220227 -0.109751
0.0417349 0.223727 -0.109581
0.0412386 0.223223 -0.1096
0.0417433 0.220781 -0.110731
0.041247 0.220277 -0.11075
0.0417215 0.223777 -0.11058
0.0412252 0.223274 -0.110598
0.0412367 0.220802 -0.111224
0.0412295 0.221801 -0.111173
0.0412222 0.222799 -0.111123
0.0403437 0.220391 -0.103222
0.0403406 0.219917 -0.103746
0.0408369 0.220421 -0.103727
0.0403334 0.220916 -0.103696
0.0403376 0.219443 -0.104271
0.0403345 0.218969 -0.104795
0.0408309 0.219472 -0.104776
0.040323 0.22144 -0.10417
0.0403127 0.221965 -0.104644
0.040809 0.222468 -0.104625
0.0408175 0.219523 -0.105775
0.0403212 0.219019 -0.105794
0.0407957 0.222519 -0.105624
0.0402994 0.222015 -0.105642
0.0408041 0.219573 -0.106774
0.0403078 0.21907 -0.106792
0.0402891 0.22254 -0.106117
0.0402787 0.223064 -0.106591
0.0407908 0.219623 -0.107772
0.0402945 0.21912 -0.107791
0.0402654 0.223115 -0.107589
0.0407774 0.219673 -0.108771
0.0402811 0.21917 -0.10879
0.040252 0.223165 -0.108588
0.0407641 0.219724 -0.10977
0.0402678 0.21922 -0.109788
0.0402387 0.223215 -0.109587
0.0407507 0.219774 -0.110768
0.0402544 0.219271 -0.110787
0.0402253 0.223266 -0.110585
0.0402441 0.219795 -0.111261
0.0402338 0.22032 -0.111735
0.0407301 0.220823 -0.111716
0.0402265 0.221319 -0.111685
0.0402296 0.221793 -0.11116
0.0402223 0.222791 -0.11111
0.0402235 0.220844 -0.112209
0.0393511 0.219385 -0.103259
0.039348 0.218911 -0.103783
0.0398443 0.219414 -0.103765
0.0393438 0.220383 -0.103209
0.0393335 0.220908 -0.103683
0.039345 0.218436 -0.104308
0.0393419 0.217962 -0.104833
0.0398382 0.218466 -0.104814
0.0398164 0.221462 -0.104663
0.0393201 0.220958 -0.104681
0.0398249 0.218516 -0.105812
0.0393286 0.218013 -0.105831
0.0393098 0.221483 -0.105155
0.0392995 0.222007 -0.10563
0.0398115 0.218566 -0.106811
0.0393152 0.218063 -0.10683
0.0397824 0.222561 -0.106609
0.0392861 0.222058 -0.106628
0.0397982 0.218617 -0.10781
0.0393019 0.218113 -0.107828
0.0392758 0.222582 -0.107102
0.0392655 0.223107 -0.107576
0.0397848 0.218667 -0.108808
0.0392885 0.218164 -0.108827
0.0392522 0.223157 -0.108575
0.0397715 0.218717 -0.109807
0.0392752 0.218214 -0.109826
0.0392461 0.222209 -0.109624
0.0392491 0.222683 -0.1091
0.0397424 0.222712 -0.109605
0.0397581 0.218767 -0.110806
0.0392618 0.218264 -0.110824
0.039729 0.222762 -0.110604
0.0392327 0.222259 -0.110623
0.0392515 0.218789 -0.111299
0.0392412 0.219313 -0.111773
0.0397375 0.219817 -0.111754
0.0392266 0.221311 -0.111672
0.0392297 0.221785 -0.111147
0.0392309 0.219838 -0.112247
0.0392236 0.220836 -0.112196
0.0383584 0.218378 -0.103296
0.0383554 0.217904 -0.103821
0.0388517 0.218407 -0.103802
0.0383512 0.219377 -0.103246
0.0383409 0.219901 -0.10372
0.0388372 0.220405 -0.103701
0.0383421 0.217954 -0.10482
0.0388238 0.220455 -0.1047
0.0383275 0.219952 -0.104719
0.0383287 0.218005 -0.105818
0.0383172 0.220476 -0.105193
0.0383069 0.221001 -0.105667
0.0388032 0.221504 -0.105648
0.0383257 0.21753 -0.106343
0.0383226 0.217056 -0.106867
0.0388189 0.21756 -0.106849
0.0382966 0.221525 -0.106141
0.0382863 0.22205 -0.106615
0.0388056 0.21761 -0.107847
0.0383093 0.217107 -0.107866
0.0387692 0.222603 -0.107595
0.0382729 0.2221 -0.107614
0.038299 0.217631 -0.10834
0.0382886 0.218156 -0.108814
0.0387559 0.222654 -0.108594
0.0382595 0.22215 -0.108612
0.0382753 0.218206 -0.109813
0.0382535 0.221202 -0.109662
0.0382565 0.221676 -0.109137
0.0387498 0.221705 -0.109643
0.0382619 0.218256 -0.110811
0.0387364 0.221756 -0.110641
0.0382401 0.221252 -0.11066
0.0387449 0.21881 -0.111791
0.0382486 0.218307 -0.11181
0.0382268 0.221303 -0.111659
0.0382383 0.218831 -0.112284
0.038231 0.21983 -0.112234
0.0382237 0.220828 -0.112183
0.0373658 0.217372 -0.103334
0.0373628 0.216897 -0.103858
0.0378591 0.217401 -0.10384
0.0373586 0.21837 -0.103283
0.0373482 0.218895 -0.103758
0.0378446 0.219398 -0.103739
0.0378457 0.217451 -0.104838
0.0373494 0.216948 -0.104857
0.0373379 0.219419 -0.104232
0.0373276 0.219944 -0.104706
0.0378324 0.217501 -0.105837
0.0373361 0.216998 -0.105856
0.0378106 0.220497 -0.105686
0.0373143 0.219994 -0.105704
0.0373227 0.217048 -0.106854
0.037304 0.220519 -0.106179
0.0372936 0.221043 -0.106653
0.0377899 0.221546 -0.106634
0.0373094 0.217099 -0.107853
0.0377766 0.221597 -0.107633
0.0372803 0.221093 -0.107651
0.0377923 0.217652 -0.108833
0.037296 0.217149 -0.108852
0.0377632 0.221647 -0.108631
0.0372669 0.221144 -0.10865
0.037779 0.217703 -0.109832
0.0372827 0.217199 -0.10985
0.0372536 0.221194 -0.109649
0.0377656 0.217753 -0.11083
0.0372693 0.21725 -0.110849
0.0372402 0.221244 -0.110647
0.0377523 0.217803 -0.111829
0.037256 0.2173 -0.111848
0.0372269 0.221295 -0.111646
0.0372457 0.217824 -0.112322
0.0372384 0.218823 -0.112271
0.0372311 0.219822 -0.112221
0.0372238 0.220821 -0.11217
0.0363732 0.216365 -0.103371
0.0363702 0.215891 -0.103896
0.0368665 0.216394 -0.103877
0.036366 0.217364 -0.103321
0.0363587 0.218362 -0.10327
0.0363484 0.218887 -0.103745
0.0368531 0.216444 -0.104876
0.0363568 0.215941 -0.104895
0.0368313 0.21944 -0.104725
0.036335 0.218937 -0.104743
0.0368398 0.216495 -0.105874
0.0363435 0.215991 -0.105893
0.0363247 0.219462 -0.105217
0.0363144 0.219986 -0.105691
0.0368264 0.216545 -0.106873
0.0363301 0.216042 -0.106892
0.0363041 0.220511 -0.106166
0.0362938 0.221035 -0.10664
0.0368131 0.216595 -0.107872
0.0363168 0.216092 -0.10789
0.0362804 0.221085 -0.107638
0.0367997 0.216646 -0.10887
0.0363034 0.216142 -0.108889
0.0362671 0.221136 -0.108637
0.0367864 0.216696 -0.109869
0.0362901 0.216193 -0.109888
0.0362537 0.221186 -0.109636
0.036773 0.216746 -0.110868
0.0362767 0.216243 -0.110886
0.0362403 0.221236 -0.110634
0.0362664 0.216767 -0.11136
0.0362561 0.217292 -0.111835
0.036227 0.221287 -0.111633
0.0362458 0.217816 -0.112309
0.0362385 0.218815 -0.112258
0.0362312 0.219814 -0.112208
0.036224 0.220813 -0.112157
0.0353733 0.216357 -0.103358
0.0353703 0.215883 -0.103883
0.0353661 0.217356 -0.103308
0.0353558 0.21788 -0.103782
0.0358521 0.218383 -0.103763
0.0353673 0.215409 -0.104407
0.0353642 0.214934 -0.104932
0.0358605 0.215438 -0.104913
0.0353454 0.218405 -0.104256
0.0353351 0.218929 -0.10473
0.0358472 0.215488 -0.105912
0.0353509 0.214985 -0.105931
0.0353248 0.219454 -0.105204
0.0353145 0.219978 -0.105678
0.0358338 0.215538 -0.106911
0.0353375 0.215035 -0.106929
0.0357975 0.220532 -0.106658
0.0353011 0.220029 -0.106677
0.0358205 0.215589 -0.107909
0.0353242 0.215085 -0.107928
0.0352908 0.220553 -0.107151
0.0352805 0.221078 -0.107625
0.0358071 0.215639 -0.108908
0.0353108 0.215136 -0.108927
0.0352672 0.221128 -0.108624
0.0357938 0.215689 -0.109906
0.0352975 0.215186 -0.109925
0.0352538 0.221178 -0.109623
0.0352872 0.215711 -0.110399
0.0352768 0.216235 -0.110873
0.0352405 0.221229 -0.110621
0.0357598 0.216789 -0.111853
0.0352635 0.216285 -0.111872
0.0352271 0.221279 -0.11162
0.0352532 0.21681 -0.112346
0.0352429 0.217334 -0.11282
0.0357392 0.217838 -0.112802
0.0357319 0.218836 -0.112751
0.0352283 0.219332 -0.112719
0.0352313 0.219806 -0.112195
0.0352241 0.220805 -0.112144
0.0352325 0.217859 -0.113294
0.0352253 0.218858 -0.113244
0.0343735 0.216349 -0.103345
0.0343704 0.215875 -0.10387
0.0343631 0.216873 -0.10382
0.0348594 0.217377 -0.103801
0.0343674 0.215401 -0.104394
0.0343643 0.214926 -0.104919
0.0343528 0.217398 -0.104294
0.0343425 0.217923 -0.104768
0.0348388 0.218426 -0.104749
0.0343613 0.214452 -0.105444
0.0343583 0.213978 -0.105968
0.0348546 0.214481 -0.105949
0.0343322 0.218447 -0.105242
0.0343219 0.218972 -0.105716
0.0348182 0.219475 -0.105697
0.0348412 0.214532 -0.106948
0.0343449 0.214028 -0.106967
0.0343116 0.219496 -0.10619
0.0343013 0.220021 -0.106664
0.0348279 0.214582 -0.107947
0.0343316 0.214079 -0.107965
0.0342909 0.220545 -0.107138
0.0342806 0.22107 -0.107612
0.0348145 0.214632 -0.108945
0.0343182 0.214129 -0.108964
0.0342673 0.22112 -0.108611
0.0343079 0.214654 -0.109438
0.0342976 0.215178 -0.109912
0.0342539 0.22117 -0.10961
0.0347805 0.215732 -0.110892
0.0342842 0.215228 -0.110911
0.0342406 0.221221 -0.110608
0.0347672 0.215782 -0.111891
0.0342709 0.215279 -0.11191
0.0342345 0.220272 -0.111657
0.0342375 0.220746 -0.111133
0.0347308 0.220776 -0.111639
0.0342606 0.215803 -0.112384
0.0342502 0.216328 -0.112858
0.0347466 0.216831 -0.112839
0.0342357 0.218325 -0.112757
0.0342387 0.218799 -0.112232
0.034732 0.218828 -0.112738
0.0342315 0.219798 -0.112182
0.0342399 0.216852 -0.113332
0.0342327 0.217851 -0.113281
0.0333808 0.215342 -0.103383
0.0333778 0.214868 -0.103907
0.0338741 0.215371 -0.103889
0.0338668 0.21637 -0.103838
0.0333705 0.215867 -0.103857
0.0333748 0.214394 -0.104432
0.0333717 0.21392 -0.104956
0.033868 0.214423 -0.104938
0.0333602 0.216391 -0.104331
0.0333529 0.21739 -0.104281
0.0333426 0.217915 -0.104755
0.0333687 0.213446 -0.105481
0.0333657 0.212971 -0.106006
0.033862 0.213475 -0.105987
0.0333323 0.218439 -0.105229
0.033322 0.218964 -0.105703
0.0338486 0.213525 -0.106985
0.0333523 0.213022 -0.107004
0.0333117 0.219488 -0.106177
0.0333014 0.220013 -0.106651
0.0338353 0.213575 -0.107984
0.0333389 0.213072 -0.108003
0.0337843 0.220566 -0.107631
0.033288 0.220063 -0.10765
0.0338219 0.213626 -0.108983
0.0333256 0.213122 -0.109001
0.0332777 0.220587 -0.108124
0.0332674 0.221112 -0.108598
0.0333153 0.213647 -0.109476
0.033305 0.214171 -0.10995
0.0338013 0.214675 -0.109931
0.033254 0.221162 -0.109597
0.0337879 0.214725 -0.11093
0.0332916 0.214222 -0.110948
0.033248 0.220214 -0.110646
0.033251 0.220688 -0.110121
0.0337443 0.220717 -0.110627
0.0337746 0.214775 -0.111928
0.0332783 0.214272 -0.111947
0.0332346 0.220264 -0.111644
0.033268 0.214797 -0.112421
0.0332576 0.215321 -0.112895
0.0337539 0.215824 -0.112876
0.0332358 0.218317 -0.112744
0.0332389 0.218791 -0.112219
0.0332316 0.21979 -0.112169
0.0332473 0.215846 -0.113369
0.0332401 0.216844 -0.113319
0.0332328 0.217843 -0.113268
0.0328742 0.215364 -0.103876
0.0323822 0.213387 -0.104469
0.0323791 0.212913 -0.104994
0.0328754 0.213416 -0.104975
0.0323749 0.214386 -0.104419
0.0323676 0.215385 -0.104369
0.0323603 0.216383 -0.104318
0.0323531 0.217382 -0.104268
0.0323427 0.217907 -0.104742
0.0323658 0.212963 -0.105993
0.0323324 0.218431 -0.105216
0.0323221 0.218956 -0.10569
0.0323524 0.213014 -0.106991
0.0323118 0.21948 -0.106164
0.0323015 0.220005 -0.106638
0.0323391 0.213064 -0.10799
0.0322881 0.220055 -0.107637
0.0323257 0.213114 -0.108988
0.0327711 0.220609 -0.108617
0.0322748 0.220105 -0.108636
0.0328087 0.213668 -0.109968
0.0323124 0.213165 -0.109987
0.0327577 0.220659 -0.109615
0.0322614 0.220156 -0.109634
0.0327953 0.213718 -0.110967
0.032299 0.213215 -0.110986
0.0322481 0.220206 -0.110633
0.0322887 0.21374 -0.11146
0.0322784 0.214264 -0.111934
0.0322347 0.220256 -0.111631
0.0327613 0.214818 -0.112914
0.032265 0.214314 -0.112933
0.0322359 0.218309 -0.112731
0.032239 0.218783 -0.112206
0.0322317 0.219782 -0.112156
0.0322547 0.214839 -0.113407
0.0322474 0.215838 -0.113356
0.0322402 0.216836 -0.113306
0.0322329 0.217835 -0.113255
0.0324207 0.183132 -0.120014
0.0324177 0.182658 -0.120538
0.032914 0.183161 -0.120519
0.0329067 0.18416 -0.120469
0.0324135 0.184131 -0.119963
0.0324032 0.184655 -0.120437
0.0324292 0.180186 -0.121164
0.0324262 0.179712 -0.121688
0.0329225 0.180216 -0.121669
0.0329152 0.181214 -0.121619
0.0324219 0.181185 -0.121113
0.0329079 0.182213 -0.121568
0.0324147 0.182184 -0.121063
0.0329007 0.183212 -0.121518
0.0328934 0.18421 -0.121468
0.0323928 0.18518 -0.120911
0.0328861 0.185209 -0.121417
0.0328788 0.186208 -0.121367
0.0323856 0.186179 -0.120861
0.0328716 0.187206 -0.121316
0.0323783 0.187177 -0.120811
0.032368 0.187702 -0.121285
0.0324159 0.180237 -0.122162
0.0324086 0.181235 -0.122112
0.0324013 0.182234 -0.122061
0.032394 0.183233 -0.122011
0.0323837 0.183757 -0.122485
0.03288 0.184261 -0.122466
0.0328728 0.185259 -0.122416
0.0328655 0.186258 -0.122365
0.0328582 0.187257 -0.122315
0.0323577 0.188226 -0.121759
0.0328509 0.188255 -0.122265
0.0323474 0.188751 -0.122233
0.0323734 0.184282 -0.122959
0.0323661 0.185281 -0.122909
0.0323589 0.186279 -0.122858
0.0323516 0.187278 -0.122808
0.0323443 0.188277 -0.122757
0.0313823 0.213379 -0.104456
0.0313792 0.212905 -0.104981
0.031375 0.214378 -0.104406
0.0313677 0.215377 -0.104356
0.0313605 0.216375 -0.104305
0.0313532 0.217374 -0.104255
0.0313429 0.217899 -0.104729
0.0313762 0.212431 -0.105505
0.0313732 0.211957 -0.10603
0.0318695 0.21246 -0.106011
0.0313325 0.218423 -0.105203
0.0313222 0.218948 -0.105677
0.0318561 0.21251 -0.10701
0.0313598 0.212007 -0.107029
0.0318052 0.219501 -0.106657
0.0313089 0.218998 -0.106676
0.0318428 0.212561 -0.108009
0.0313465 0.212057 -0.108027
0.0312986 0.219523 -0.10715
0.0312883 0.220047 -0.107624
0.0318294 0.212611 -0.109007
0.0313331 0.212108 -0.109026
0.0312749 0.220097 -0.108623
0.0318161 0.212661 -0.110006
0.0313198 0.212158 -0.110025
0.0312616 0.220148 -0.109621
0.0318027 0.212712 -0.111005
0.0313064 0.212208 -0.111023
0.0312482 0.220198 -0.11062
0.0312961 0.212733 -0.111497
0.0312858 0.213257 -0.111971
0.0317821 0.213761 -0.111953
0.0312421 0.21925 -0.111669
0.0312452 0.219724 -0.111144
0.0317384 0.219753 -0.11165
0.0317687 0.213811 -0.112951
0.0312724 0.213308 -0.11297
0.031236 0.218301 -0.112718
0.0312391 0.218776 -0.112193
0.0312621 0.213832 -0.113444
0.0312548 0.214831 -0.113394
0.0312476 0.21583 -0.113343
0.0312403 0.216828 -0.113293
0.031233 0.217827 -0.113243
0.0314633 0.179079 -0.119204
0.0314603 0.178605 -0.119728
0.0319566 0.179108 -0.11971
0.0319493 0.180107 -0.119659
0.031456 0.180078 -0.119153
0.031942 0.181106 -0.119609
0.0314488 0.181076 -0.119103
0.0319348 0.182104 -0.119558
0.0314415 0.182075 -0.119052
0.0319275 0.183103 -0.119508
0.0314342 0.183074 -0.119002
0.0319202 0.184102 -0.119457
0.0314269 0.184073 -0.118952
0.0319129 0.1851 -0.119407
0.0314197 0.185071 -0.118901
0.0314093 0.185596 -0.119375
0.0314791 0.175135 -0.120404
0.031476 0.17466 -0.120929
0.0319723 0.175164 -0.12091
0.031965 0.176162 -0.120859
0.0314718 0.176133 -0.120354
0.0319578 0.177161 -0.120809
0.0314645 0.177132 -0.120303
0.0319505 0.17816 -0.120759
0.0314572 0.178131 -0.120253
0.0319432 0.179159 -0.120708
0.0319359 0.180157 -0.120658
0.0319287 0.181156 -0.120607
0.0319214 0.182155 -0.120557
0.0318996 0.185151 -0.120406
0.031399 0.18612 -0.119849
0.0318923 0.186149 -0.120355
0.031885 0.187148 -0.120305
0.0313918 0.187119 -0.119799
0.0313814 0.187644 -0.120273
0.0314657 0.175185 -0.121403
0.0314554 0.175709 -0.121877
0.0319517 0.176213 -0.121858
0.0319444 0.177211 -0.121808
0.0319371 0.17821 -0.121757
0.0319299 0.179209 -0.121707
0.0318644 0.188197 -0.121253
0.0313711 0.188168 -0.120747
0.0318571 0.189196 -0.121203
0.0313639 0.189167 -0.120697
0.0318499 0.190195 -0.121152
0.0313566 0.190165 -0.120646
0.0313463 0.19069 -0.12112
0.0314451 0.176234 -0.122351
0.0314378 0.177233 -0.1223
0.0314305 0.178231 -0.12225
0.0314202 0.178756 -0.122724
0.0319165 0.179259 -0.122705
0.0319092 0.180258 -0.122655
0.031902 0.181257 -0.122605
0.0318947 0.182255 -0.122554
0.0318874 0.183254 -0.122504
0.0318438 0.189246 -0.122201
0.0318365 0.190245 -0.122151
0.031336 0.191214 -0.121595
0.0318292 0.191244 -0.1221
0.0313256 0.191739 -0.122069
0.0314099 0.17928 -0.123198
0.0314026 0.180279 -0.123148
0.0313954 0.181278 -0.123097
0.0313881 0.182276 -0.123047
0.0313808 0.183275 -0.122997
0.0313735 0.184274 -0.122946
0.0313663 0.185273 -0.122896
0.031359 0.186271 -0.122845
0.0313487 0.186796 -0.123319
0.031845 0.187299 -0.123301
0.0318377 0.188298 -0.12325
0.0318304 0.189297 -0.1232
0.0318231 0.190295 -0.123149
0.0313226 0.191265 -0.122593
0.0313196 0.190791 -0.123118
0.0313384 0.18732 -0.123794
0.0313311 0.188319 -0.123743
0.0313238 0.189318 -0.123693
0.0313165 0.190316 -0.123642
0.0307063 0.184955 -0.0968676
0.0307032 0.184481 -0.0973921
0.0311995 0.184984 -0.0973734
0.0311922 0.185983 -0.097323
0.030699 0.185954 -0.0968172
0.031185 0.186981 -0.0972725
0.0306917 0.186952 -0.0967667
0.0311777 0.18798 -0.0972221
0.0306844 0.187951 -0.0967163
0.0311704 0.188979 -0.0971717
0.0306772 0.18895 -0.0966659
0.0311631 0.189978 -0.0971213
0.0306699 0.189948 -0.0966155
0.0306596 0.190473 -0.0970896
0.0311862 0.185034 -0.098372
0.0306899 0.184531 -0.0983908
0.0311789 0.186033 -0.0983216
0.0311716 0.187032 -0.0982712
0.0311643 0.18803 -0.0982208
0.0311571 0.189029 -0.0981703
0.0311498 0.190028 -0.0981199
0.0306493 0.190997 -0.0975637
0.0311425 0.191027 -0.0980695
0.0311352 0.192025 -0.0980191
0.030642 0.191996 -0.0975133
0.0306317 0.192521 -0.0979874
0.0306795 0.185056 -0.0988649
0.0306692 0.18558 -0.099339
0.0311655 0.186083 -0.0993203
0.0311583 0.187082 -0.0992698
0.031151 0.188081 -0.0992194
0.0311437 0.189079 -0.099169
0.0311364 0.190078 -0.0991186
0.0311292 0.191077 -0.0990681
0.0311219 0.192076 -0.0990177
0.0306183 0.192571 -0.098986
0.0306589 0.186105 -0.0998131
0.0306486 0.186629 -0.100287
0.0311449 0.187132 -0.100268
0.0311376 0.188131 -0.100218
0.0311304 0.18913 -0.100168
0.0311231 0.190129 -0.100117
0.0311158 0.191127 -0.100067
0.0311085 0.192126 -0.100016
0.030608 0.193095 -0.0994601
0.0311013 0.193125 -0.0999659
0.0305977 0.19362 -0.0999342
0.0306383 0.187154 -0.100761
0.030631 0.188152 -0.100711
0.0306237 0.189151 -0.10066
0.0306165 0.19015 -0.10061
0.0306092 0.191148 -0.10056
0.0306019 0.192147 -0.100509
0.0305946 0.193146 -0.100459
0.0303897 0.212373 -0.104494
0.0303866 0.211899 -0.105018
0.0308829 0.212402 -0.105
0.0303824 0.213371 -0.104443
0.0303751 0.21437 -0.104393
0.0303678 0.215369 -0.104343
0.0303606 0.216368 -0.104292
0.0303503 0.216892 -0.104766
0.0308466 0.217395 -0.104748
0.0303836 0.211424 -0.105543
0.0303805 0.21095 -0.106067
0.0308769 0.211454 -0.106049
0.0303399 0.217417 -0.10524
0.0303327 0.218415 -0.10519
0.0303224 0.21894 -0.105664
0.0308635 0.211504 -0.107047
0.0303672 0.211001 -0.107066
0.0308053 0.219493 -0.106644
0.030312 0.219464 -0.106138
0.0303017 0.219989 -0.106612
0.0308501 0.211554 -0.108046
0.0303538 0.211051 -0.108065
0.0302884 0.220039 -0.107611
0.0308368 0.211604 -0.109045
0.0303405 0.211101 -0.109063
0.0307713 0.220593 -0.108591
0.0302781 0.220564 -0.108085
0.0302677 0.221088 -0.108559
0.0308234 0.211655 -0.110043
0.0303271 0.211151 -0.110062
0.0302617 0.22014 -0.109608
0.0302647 0.220614 -0.109084
0.0308101 0.211705 -0.111042
0.0303138 0.211202 -0.111061
0.0302483 0.22019 -0.110607
0.0307967 0.211755 -0.112041
0.0303004 0.211252 -0.112059
0.0307895 0.212754 -0.11199
0.0302422 0.219242 -0.111656
0.0302453 0.219716 -0.111131
0.0307834 0.211806 -0.113039
0.0302871 0.211302 -0.113058
0.0307761 0.212804 -0.112989
0.0302362 0.218293 -0.112705
0.0302392 0.218768 -0.11218
0.0302768 0.211827 -0.113532
0.0302695 0.212826 -0.113482
0.0302592 0.21335 -0.113956
0.0307555 0.213854 -0.113937
0.0307482 0.214852 -0.113887
0.0307409 0.215851 -0.113836
0.0302374 0.216346 -0.113804
0.0302404 0.21682 -0.11328
0.0302331 0.217819 -0.11323
0.0302489 0.213875 -0.11443
0.0302416 0.214873 -0.114379
0.0302343 0.215872 -0.114329
0.030461 0.182965 -0.116992
0.030458 0.182491 -0.117516
0.0309543 0.182994 -0.117498
0.030947 0.183993 -0.117447
0.0304538 0.183964 -0.116941
0.0309397 0.184992 -0.117397
0.0304465 0.184963 -0.116891
0.0304362 0.185487 -0.117365
0.0305059 0.175026 -0.118394
0.0305028 0.174552 -0.118918
0.0309991 0.175055 -0.1189
0.0309919 0.176054 -0.118849
0.0304986 0.176025 -0.118343
0.0309846 0.177053 -0.118799
0.0304913 0.177023 -0.118293
0.0309773 0.178051 -0.118748
0.0304841 0.178022 -0.118243
0.03097 0.17905 -0.118698
0.0304768 0.179021 -0.118192
0.0309628 0.180049 -0.118647
0.0304695 0.18002 -0.118142
0.0309555 0.181047 -0.118597
0.0304622 0.181018 -0.118091
0.0309482 0.182046 -0.118547
0.030455 0.182017 -0.118041
0.0309409 0.183045 -0.118496
0.0309337 0.184043 -0.118446
0.0309264 0.185042 -0.118395
0.0304259 0.186012 -0.117839
0.0309191 0.186041 -0.118345
0.0309118 0.18704 -0.118294
0.0304186 0.18701 -0.117789
0.0304083 0.187535 -0.118263
0.0304998 0.174078 -0.119443
0.0304968 0.173603 -0.119967
0.0309931 0.174107 -0.119949
0.0309858 0.175105 -0.119898
0.0309785 0.176104 -0.119848
0.0309712 0.177103 -0.119797
0.030964 0.178102 -0.119747
0.0309058 0.186091 -0.119344
0.0308985 0.18709 -0.119293
0.030398 0.188059 -0.118737
0.0308912 0.188089 -0.119243
0.0308839 0.189087 -0.119192
0.0303907 0.189058 -0.118686
0.0308767 0.190086 -0.119142
0.0303834 0.190057 -0.118636
0.0303731 0.190581 -0.11911
0.0309797 0.174157 -0.120947
0.0304834 0.173654 -0.120966
0.0308779 0.188139 -0.120241
0.0308706 0.189138 -0.120191
0.0308633 0.190136 -0.12014
0.0303628 0.191106 -0.119584
0.030856 0.191135 -0.12009
0.0303525 0.19163 -0.120058
0.0304731 0.174178 -0.12144
0.0304628 0.174703 -0.121914
0.0309591 0.175206 -0.121896
0.0308427 0.191185 -0.121089
0.0303422 0.192155 -0.120532
0.0308354 0.192184 -0.121038
0.0303318 0.192679 -0.121007
0.0304525 0.175227 -0.122388
0.0304452 0.176226 -0.122338
0.0304379 0.177225 -0.122288
0.0304276 0.177749 -0.122762
0.0309239 0.178253 -0.122743
0.0308221 0.192234 -0.122037
0.0303215 0.193204 -0.121481
0.0308148 0.193233 -0.121987
0.0303112 0.193728 -0.121955
0.0304173 0.178274 -0.123236
0.03041 0.179272 -0.123185
0.0304027 0.180271 -0.123135
0.0303955 0.18127 -0.123084
0.0303882 0.182269 -0.123034
0.0303779 0.182793 -0.123508
0.0308742 0.183296 -0.123489
0.0308669 0.184295 -0.123439
0.0308596 0.185294 -0.123389
0.0308524 0.186292 -0.123338
0.030816 0.191286 -0.123086
0.0308087 0.192285 -0.123036
0.0303082 0.193254 -0.122479
0.0303051 0.19278 -0.123004
0.0303676 0.183318 -0.123982
0.0303603 0.184316 -0.123932
0.030353 0.185315 -0.123881
0.0303457 0.186314 -0.123831
0.0303385 0.187312 -0.123781
0.0303312 0.188311 -0.12373
0.0303239 0.18931 -0.12368
0.0303166 0.190308 -0.123629
0.0303094 0.191307 -0.123579
0.0303021 0.192306 -0.123528
0.0297561 0.179903 -0.0961081
0.0297531 0.179429 -0.0966326
0.0302494 0.179932 -0.0966139
0.0302421 0.180931 -0.0965635
0.0297488 0.180902 -0.0960577
0.0302348 0.18193 -0.0965131
0.0297415 0.181901 -0.0960073
0.0302275 0.182928 -0.0964626
0.0297343 0.182899 -0.0959568
0.0302203 0.183927 -0.0964122
0.029727 0.183898 -0.0959064
0.0297167 0.184422 -0.0963805
0.0297427 0.179953 -0.0971068
0.0297324 0.180478 -0.0975809
0.0302287 0.180981 -0.0975621
0.0302215 0.18198 -0.0975117
0.0302142 0.182979 -0.0974613
0.0302069 0.183977 -0.0974109
0.0297064 0.184947 -0.0968546
0.0296991 0.185946 -0.0968042
0.0296918 0.186944 -0.0967538
0.0296845 0.187943 -0.0967033
0.0296773 0.188942 -0.0966529
0.02967 0.18994 -0.0966025
0.030156 0.190968 -0.0970579
0.0296627 0.190939 -0.0965521
0.0296524 0.191464 -0.0970262
0.0297221 0.181002 -0.098055
0.0297148 0.182001 -0.0980045
0.0297045 0.182526 -0.0984787
0.0302008 0.183029 -0.0984599
0.0301936 0.184028 -0.0984095
0.0296421 0.191988 -0.0975003
0.0301281 0.193016 -0.0979557
0.0296348 0.192987 -0.0974499
0.0301208 0.194015 -0.0979052
0.0296275 0.193986 -0.0973994
0.0296172 0.19451 -0.0978735
0.0296942 0.18305 -0.0989528
0.0296839 0.183575 -0.0994269
0.0301802 0.184078 -0.0994081
0.0301729 0.185077 -0.0993577
0.0301147 0.193066 -0.0989543
0.0301075 0.194065 -0.0989039
0.0296069 0.195035 -0.0983476
0.0301002 0.195064 -0.0988535
0.0295966 0.195559 -0.0988218
0.0296736 0.184099 -0.099901
0.0296633 0.184624 -0.100375
0.0301596 0.185127 -0.100356
0.0301523 0.186126 -0.100306
0.0300941 0.194115 -0.0999025
0.0300868 0.195114 -0.0998521
0.0295832 0.195609 -0.0998204
0.029653 0.185148 -0.100849
0.0296457 0.186147 -0.100799
0.0296354 0.186671 -0.101273
0.0301317 0.187175 -0.101254
0.0301244 0.188173 -0.101204
0.0301171 0.189172 -0.101153
0.0301099 0.190171 -0.101103
0.0301026 0.19117 -0.101052
0.0300953 0.192168 -0.101002
0.030088 0.193167 -0.100952
0.0300808 0.194166 -0.100901
0.0295802 0.195135 -0.100345
0.0295772 0.194661 -0.100869
0.0296251 0.187196 -0.101747
0.0296178 0.188195 -0.101697
0.0296105 0.189193 -0.101646
0.0296002 0.189718 -0.10212
0.0300965 0.190221 -0.102102
0.0300892 0.19122 -0.102051
0.0300819 0.192219 -0.102001
0.0295814 0.193188 -0.101444
0.0295784 0.192714 -0.101969
0.0295741 0.194187 -0.101394
0.0295899 0.190242 -0.102594
0.0295826 0.191241 -0.102544
0.0295753 0.19224 -0.102494
0.0293898 0.212365 -0.104481
0.0293867 0.211891 -0.105005
0.0293825 0.213364 -0.10443
0.0293752 0.214362 -0.10438
0.029368 0.215361 -0.10433