<VTKFile type="UnstructuredGrid" version="0.1" byte_order="BigEndian">
  <UnstructuredGrid>
    <Piece NumberOfPoints="21372" NumberOfCells="42716">
      <PointData>
        <DataArray type="Float64" Name="position" NumberOfComponents="3" format="ascii">
0.0458713 0.22346 -0.10634
0.0458664 0.222985 -0.106863
0.0463627 0.223488 -0.106847
0.0463555 0.224487 -0.106799
0.0458641 0.224459 -0.106292
0.0463483 0.225486 -0.106752
0.0458569 0.225458 -0.106244
0.0463411 0.226485 -0.106704
0.0458497 0.226457 -0.106196
0.0458376 0.22698 -0.106671
0.0463457 0.223536 -0.107846
0.0458494 0.223033 -0.107862
0.0463385 0.224535 -0.107798
0.0463313 0.225534 -0.10775
0.0463241 0.226533 -0.107702
0.0458206 0.227028 -0.10767
0.0463287 0.223584 -0.108845
0.0458324 0.223081 -0.108861
0.0463215 0.224583 -0.108797
0.0463143 0.225582 -0.108749
0.0463071 0.22658 -0.108701
0.0458036 0.227076 -0.108669
0.0463118 0.223632 -0.109844
0.0458154 0.223128 -0.109859
0.0463046 0.224631 -0.109796
0.0462974 0.225629 -0.109748
0.0462902 0.226628 -0.1097
0.0457867 0.227124 -0.109667
0.0458034 0.223652 -0.110335
0.0457962 0.224651 -0.110287
0.045789 0.225649 -0.110239
0.0457818 0.226648 -0.110191
0.0449054 0.223357 -0.104326
0.0449005 0.222881 -0.104849
0.0453968 0.223385 -0.104833
0.0453896 0.224383 -0.104785
0.0448982 0.224355 -0.104278
0.0453824 0.225382 -0.104737
0.044891 0.225354 -0.10423
0.0448789 0.225878 -0.104705
0.0448956 0.222406 -0.105372
0.0448907 0.22193 -0.105896
0.045387 0.222434 -0.10588
0.0453798 0.223432 -0.105832
0.0453726 0.224431 -0.105784
0.0453654 0.22543 -0.105736
0.0448619 0.225925 -0.105704
0.0453701 0.222481 -0.106879
0.0448737 0.221978 -0.106895
0.0448449 0.225973 -0.106703
0.0453413 0.226477 -0.106687
0.0453531 0.222529 -0.107878
0.0448568 0.222026 -0.107893
0.0453243 0.226525 -0.107686
0.044828 0.226021 -0.107701
0.0453361 0.222577 -0.108876
0.0448398 0.222074 -0.108892
0.0453073 0.226572 -0.108684
0.044811 0.226069 -0.1087
0.0448277 0.222597 -0.109367
0.0448156 0.22312 -0.109843
0.0448012 0.225118 -0.109747
0.0448061 0.225594 -0.109223
0.0452975 0.225621 -0.109731
0.0452903 0.22662 -0.109683
0.0448107 0.222645 -0.110366
0.0448058 0.222169 -0.110889
0.0453022 0.222673 -0.110874
0.045295 0.223672 -0.110826
0.0452878 0.22467 -0.110778
0.0447842 0.225166 -0.110745
0.0447938 0.222693 -0.111365
0.0447866 0.223692 -0.111317
0.0447794 0.22469 -0.111269
0.0439127 0.22235 -0.104357
0.0439079 0.221874 -0.104881
0.0444042 0.222378 -0.104865
0.0439055 0.223349 -0.104309
0.0438983 0.224347 -0.104261
0.0438863 0.224871 -0.104737
0.0443826 0.225374 -0.104721
0.0438909 0.221922 -0.105879
0.0443656 0.225422 -0.10572
0.0438693 0.224919 -0.105735
0.0438739 0.22197 -0.106878
0.0443486 0.22547 -0.106718
0.0438523 0.224966 -0.106734
0.0438569 0.222018 -0.107877
0.0443317 0.225518 -0.107717
0.0438353 0.225014 -0.107733
0.04384 0.222066 -0.108875
0.0438256 0.224063 -0.108779
0.0438305 0.224539 -0.108256
0.0443219 0.224567 -0.108764
0.0443147 0.225566 -0.108716
0.0443193 0.222617 -0.109858
0.043823 0.222114 -0.109874
0.0443049 0.224615 -0.109762
0.0438086 0.224111 -0.109778
0.043806 0.222161 -0.110873
0.0437965 0.224635 -0.110253
0.0437844 0.225158 -0.110729
0.0437939 0.222685 -0.111348
0.0437867 0.223684 -0.1113
0.0437795 0.224682 -0.111252
0.0429299 0.222294 -0.103342
0.042925 0.221818 -0.103865
0.0434213 0.222322 -0.10385
0.0434141 0.223321 -0.103802
0.0429227 0.223293 -0.103294
0.0434069 0.224319 -0.103754
0.0429155 0.224292 -0.103246
0.0429034 0.224815 -0.103721
0.042908 0.221866 -0.104864
0.0428864 0.224863 -0.10472
0.042891 0.221914 -0.105863
0.0428767 0.223912 -0.105767
0.0428815 0.224387 -0.105243
0.043373 0.224415 -0.105751
0.0428862 0.221439 -0.106386
0.0428813 0.220963 -0.106909
0.0433776 0.221467 -0.106894
0.043356 0.224463 -0.10675
0.0428597 0.22396 -0.106765
0.0428692 0.221487 -0.107385
0.0428571 0.22201 -0.10786
0.043339 0.224511 -0.107748
0.0428427 0.224007 -0.107764
0.0428401 0.222058 -0.108859
0.0428257 0.224055 -0.108763
0.0428232 0.222106 -0.109857
0.0428088 0.224103 -0.109761
0.0428183 0.22163 -0.110381
0.0428134 0.221155 -0.110904
0.0433097 0.221658 -0.110888
0.0427967 0.224627 -0.110237
0.0427846 0.22515 -0.110712
0.0428013 0.221678 -0.11138
0.0427941 0.222677 -0.111332
0.0427869 0.223676 -0.111284
0.0427797 0.224674 -0.111236
0.0424215 0.222314 -0.103833
0.0424143 0.223313 -0.103785
0.0424071 0.224311 -0.103737
0.0419203 0.221335 -0.104372
0.0419154 0.220859 -0.104895
0.0424117 0.221363 -0.10488
0.0419131 0.222334 -0.104324
0.0419059 0.223333 -0.104276
0.0423901 0.224359 -0.104736
0.0418938 0.223856 -0.104751
0.0423947 0.221411 -0.105878
0.0418984 0.220907 -0.105894
0.0418768 0.223904 -0.10575
0.0418814 0.220955 -0.106893
0.041867 0.222953 -0.106797
0.0418719 0.223428 -0.106273
0.0423634 0.223456 -0.106781
0.0423608 0.221506 -0.107876
0.0418645 0.221003 -0.107891
0.041855 0.223476 -0.107272
0.0418429 0.223999 -0.107747
0.0423438 0.221554 -0.108874
0.0418475 0.221051 -0.10889
0.0418259 0.224047 -0.108746
0.0423268 0.221602 -0.109873
0.0418305 0.221099 -0.109889
0.0418089 0.224095 -0.109745
0.0418135 0.221147 -0.110888
0.0422883 0.224646 -0.110728
0.041792 0.224143 -0.110744
0.0418015 0.22167 -0.111363
0.0417943 0.222669 -0.111315
0.0417871 0.223668 -0.111267
0.0409276 0.220328 -0.104403
0.0409228 0.219853 -0.104927
0.0414191 0.220356 -0.104911
0.0409204 0.221327 -0.104355
0.0409133 0.222326 -0.104307
0.0409012 0.222849 -0.104783
0.0413975 0.223353 -0.104767
0.0414021 0.220404 -0.10591
0.0409058 0.2199 -0.105925
0.0413805 0.2234 -0.105766
0.0408842 0.222897 -0.105781
0.0413851 0.220452 -0.106908
0.0408888 0.219948 -0.106924
0.0408672 0.222945 -0.10678
0.0413682 0.2205 -0.107907
0.0408718 0.219996 -0.107923
0.0413466 0.223496 -0.107763
0.0408502 0.222993 -0.107779
0.0413512 0.220547 -0.108906
0.0408549 0.220044 -0.108921
0.0413296 0.223544 -0.108762
0.0408333 0.223041 -0.108778
0.0413342 0.220595 -0.109905
0.0408379 0.220092 -0.10992
0.0413126 0.223592 -0.109761
0.0408163 0.223088 -0.109776
0.0413172 0.220643 -0.110903
0.0408209 0.22014 -0.110919
0.0412956 0.22364 -0.110759
0.0407993 0.223136 -0.110775
0.0408088 0.220663 -0.111394
0.0408016 0.221662 -0.111346
0.0407944 0.222661 -0.111298
0.0399448 0.220272 -0.103388
0.0399399 0.219797 -0.103911
0.0404362 0.2203 -0.103896
0.0399327 0.220796 -0.103863
0.039935 0.219321 -0.104435
0.0399301 0.218846 -0.104958
0.0404264 0.219349 -0.104942
0.0399206 0.221319 -0.104339
0.0399085 0.221842 -0.104814
0.0404048 0.222346 -0.104798
0.0404095 0.219397 -0.105941
0.0399132 0.218894 -0.105957
0.0403879 0.222394 -0.105797
0.0398916 0.22189 -0.105813
0.0403925 0.219445 -0.10694
0.0398962 0.218942 -0.106955
0.0398795 0.222413 -0.106288
0.0398674 0.222937 -0.106764
0.0403755 0.219493 -0.107938
0.0398792 0.218989 -0.107954
0.0398504 0.222985 -0.107762
0.0403585 0.219541 -0.108937
0.0398622 0.219037 -0.108953
0.0398334 0.223033 -0.108761
0.0403416 0.219589 -0.109936
0.0398453 0.219085 -0.109952
0.0398165 0.22308 -0.10976
0.0403246 0.219636 -0.110935
0.0398283 0.219133 -0.11095
0.0397995 0.223128 -0.110758
0.0398162 0.219656 -0.111426
0.0398041 0.22018 -0.111901
0.0403004 0.220683 -0.111885
0.0397969 0.221178 -0.111853
0.0398018 0.221654 -0.11133
0.0397946 0.222653 -0.111282
0.039792 0.220703 -0.112376
0.0389522 0.219265 -0.103419
0.0389473 0.21879 -0.103943
0.0394436 0.219293 -0.103927
0.038945 0.220264 -0.103371
0.0389329 0.220788 -0.103847
0.0389424 0.218314 -0.104466
0.0389375 0.217839 -0.104989
0.0394338 0.218342 -0.104974
0.0394122 0.221339 -0.10483
0.0389159 0.220835 -0.104845
0.0394168 0.21839 -0.105972
0.0389205 0.217887 -0.105988
0.0389038 0.221359 -0.105321
0.0388917 0.221882 -0.105796
0.0393999 0.218438 -0.106971
0.0389035 0.217935 -0.106987
0.0393711 0.222433 -0.106779
0.0388748 0.22193 -0.106795
0.0393829 0.218486 -0.10797
0.0388866 0.217983 -0.107986
0.0388627 0.222453 -0.10727
0.0388506 0.222977 -0.107746
0.0393659 0.218534 -0.108969
0.0388696 0.21803 -0.108984
0.0388336 0.223025 -0.108744
0.0393489 0.218582 -0.109967
0.0388526 0.218078 -0.109983
0.0388238 0.222074 -0.109791
0.0388287 0.222549 -0.109268
0.0393202 0.222577 -0.109775
0.039332 0.21863 -0.110966
0.0388357 0.218126 -0.110982
0.0393032 0.222625 -0.110774
0.0388069 0.222121 -0.11079
0.0388236 0.218649 -0.111457
0.0388115 0.219173 -0.111932
0.0393078 0.219676 -0.111917
0.0387971 0.22117 -0.111836
0.038802 0.221646 -0.111313
0.0387994 0.219696 -0.112408
0.0387922 0.220695 -0.11236
0.0379595 0.218259 -0.103451
0.0379546 0.217783 -0.103974
0.038451 0.218287 -0.103958
0.0379523 0.219257 -0.103403
0.0379402 0.219781 -0.103878
0.0384366 0.220284 -0.103862
0.0379377 0.217831 -0.104973
0.0384196 0.220332 -0.104861
0.0379233 0.219829 -0.104877
0.0379207 0.217879 -0.105972
0.0379112 0.220352 -0.105352
0.0378991 0.220875 -0.105828
0.0383954 0.221379 -0.105812
0.0379158 0.217403 -0.106495
0.0379109 0.216928 -0.107018
0.0384072 0.217431 -0.107003
0.037887 0.221399 -0.106303
0.0378749 0.221922 -0.106778
0.0383903 0.217479 -0.108001
0.0378939 0.216976 -0.108017
0.0383543 0.222473 -0.107761
0.037858 0.22197 -0.107777
0.0378819 0.217499 -0.108492
0.0378698 0.218022 -0.108968
0.0383373 0.222521 -0.10876
0.037841 0.222018 -0.108776
0.0378528 0.21807 -0.109966
0.0378312 0.221067 -0.109822
0.0378361 0.221542 -0.109299
0.0383275 0.22157 -0.109807
0.0378358 0.218118 -0.110965
0.0383105 0.221618 -0.110805
0.0378142 0.221115 -0.110821
0.0383152 0.218669 -0.111948
0.0378188 0.218166 -0.111964
0.0377973 0.221162 -0.11182
0.0378068 0.218689 -0.112439
0.0377996 0.219688 -0.112391
0.0377924 0.220687 -0.112343
0.0369669 0.217252 -0.103482
0.036962 0.216776 -0.104005
0.0374583 0.21728 -0.10399
0.0369597 0.218251 -0.103434
0.0369476 0.218774 -0.103909
0.0374439 0.219277 -0.103894
0.0374413 0.217328 -0.104988
0.036945 0.216824 -0.105004
0.0369355 0.219297 -0.104385
0.0369234 0.219821 -0.10486
0.0374244 0.217375 -0.105987
0.0369281 0.216872 -0.106003
0.0374028 0.220372 -0.105843
0.0369065 0.219868 -0.105859
0.0369111 0.21692 -0.107002
0.0368944 0.220392 -0.106334
0.0368823 0.220915 -0.10681
0.0373786 0.221419 -0.106794
0.0368941 0.216968 -0.108
0.0373616 0.221466 -0.107793
0.0368653 0.220963 -0.107808
0.0373735 0.217519 -0.108983
0.0368771 0.217016 -0.108999
0.0373447 0.221514 -0.108791
0.0368483 0.221011 -0.108807
0.0373565 0.217567 -0.109982
0.0368602 0.217063 -0.109998
0.0368314 0.221059 -0.109806
0.0373395 0.217615 -0.110981
0.0368432 0.217111 -0.110996
0.0368144 0.221107 -0.110804
0.0373225 0.217663 -0.111979
0.0368262 0.217159 -0.111995
0.0367974 0.221154 -0.111803
0.0368141 0.217682 -0.112471
0.0368069 0.218681 -0.112423
0.0367997 0.21968 -0.112375
0.0367925 0.220679 -0.112327
0.0359743 0.216245 -0.103513
0.0359694 0.215769 -0.104037
0.0364657 0.216273 -0.104021
0.0359671 0.217244 -0.103466
0.0359599 0.218243 -0.103418
0.0359478 0.218766 -0.103893
0.0364487 0.216321 -0.10502
0.0359524 0.215817 -0.105036
0.0364271 0.219317 -0.104876
0.0359308 0.218814 -0.104892
0.0364317 0.216369 -0.106019
0.0359354 0.215865 -0.106034
0.0359187 0.219337 -0.105367
0.0359066 0.21986 -0.105842
0.0364148 0.216416 -0.107017
0.0359185 0.215913 -0.107033
0.0358945 0.220384 -0.106318
0.0358825 0.220907 -0.106793
0.0363978 0.216464 -0.108016
0.0359015 0.215961 -0.108032
0.0358655 0.220955 -0.107792
0.0363808 0.216512 -0.109015
0.0358845 0.216009 -0.10903
0.0358485 0.221003 -0.10879
0.0363638 0.21656 -0.110013
0.0358675 0.216057 -0.110029
0.0358315 0.221051 -0.109789
0.0363469 0.216608 -0.111012
0.0358506 0.216104 -0.111028
0.0358146 0.221099 -0.110788
0.0358385 0.216628 -0.111503
0.0358264 0.217151 -0.111979
0.0357976 0.221146 -0.111787
0.0358143 0.217674 -0.112454
0.0358071 0.218673 -0.112406
0.0357999 0.219672 -0.112358
0.0357927 0.220671 -0.11231
0.0349744 0.216237 -0.103497
0.0349695 0.215761 -0.10402
0.0349672 0.217236 -0.103449
0.0349551 0.217759 -0.103924
0.0354515 0.218263 -0.103909
0.0349647 0.215286 -0.104544
0.0349598 0.214811 -0.105067
0.0354561 0.215314 -0.105051
0.0349431 0.218282 -0.1044
0.034931 0.218806 -0.104875
0.0354391 0.215362 -0.10605
0.0349428 0.214858 -0.106066
0.0349189 0.219329 -0.10535
0.0349068 0.219852 -0.105826
0.0354221 0.21541 -0.107049
0.0349258 0.214906 -0.107064
0.0353861 0.220404 -0.106809
0.0348898 0.2199 -0.106824
0.0354052 0.215457 -0.108047
0.0349088 0.214954 -0.108063
0.0348777 0.220424 -0.1073
0.0348657 0.220947 -0.107775
0.0353882 0.215505 -0.109046
0.0348919 0.215002 -0.109062
0.0348487 0.220995 -0.108774
0.0353712 0.215553 -0.110045
0.0348749 0.21505 -0.11006
0.0348317 0.221043 -0.109773
0.0348628 0.215573 -0.110536
0.0348507 0.216096 -0.111011
0.0348147 0.221091 -0.110771
0.0353301 0.216648 -0.111994
0.0348338 0.216144 -0.11201
0.0347978 0.221138 -0.11177
0.0348217 0.216668 -0.112485
0.0348096 0.217191 -0.112961
0.0353059 0.217694 -0.112945
0.0352987 0.218693 -0.112897
0.0347952 0.219189 -0.112865
0.0348001 0.219664 -0.112341
0.0347929 0.220663 -0.112293
0.0347975 0.217714 -0.113436
0.0347903 0.218713 -0.113388
0.0339746 0.216229 -0.10348
0.0339697 0.215753 -0.104004
0.0339625 0.216752 -0.103956
0.0344588 0.217256 -0.10394
0.0339648 0.215278 -0.104527
0.0339599 0.214803 -0.10505
0.0339504 0.217276 -0.104431
0.0339383 0.217799 -0.104906
0.0344347 0.218302 -0.104891
0.033955 0.214327 -0.105574
0.0339502 0.213852 -0.106097
0.0344465 0.214355 -0.106081
0.0339263 0.218322 -0.105382
0.0339142 0.218846 -0.105857
0.0344105 0.219349 -0.105841
0.0344295 0.214403 -0.10708
0.0339332 0.213899 -0.107096
0.0339021 0.219369 -0.106332
0.03389 0.219892 -0.106808
0.0344125 0.214451 -0.108079
0.0339162 0.213947 -0.108094
0.0338779 0.220416 -0.107283
0.0338658 0.220939 -0.107759
0.0343956 0.214499 -0.109077
0.0338992 0.213995 -0.109093
0.0338489 0.220987 -0.108757
0.0338872 0.214518 -0.109569
0.0338751 0.215042 -0.110044
0.0338319 0.221035 -0.109756
0.0343544 0.215593 -0.111027
0.0338581 0.21509 -0.111043
0.0338149 0.221083 -0.110755
0.0343374 0.215641 -0.112026
0.0338411 0.215138 -0.112041
0.0338051 0.220132 -0.111801
0.03381 0.220607 -0.111278
0.0343014 0.220635 -0.111786
0.033829 0.215661 -0.112517
0.0338169 0.216184 -0.112992
0.0343133 0.216688 -0.112976
0.0338026 0.218182 -0.112896
0.0338074 0.218657 -0.112373
0.0342989 0.218685 -0.11288
0.0338002 0.219656 -0.112325
0.0338049 0.216708 -0.113467
0.0337977 0.217706 -0.113419
0.032982 0.215222 -0.103512
0.0329771 0.214747 -0.104035
0.0334734 0.21525 -0.104019
0.0334662 0.216249 -0.103971
0.0329699 0.215745 -0.103987
0.0329722 0.214271 -0.104558
0.0329673 0.213796 -0.105082
0.0334636 0.214299 -0.105066
0.0329578 0.216269 -0.104462
0.0329506 0.217268 -0.104414
0.0329385 0.217791 -0.10489
0.0329624 0.21332 -0.105605
0.0329575 0.212845 -0.106128
0.0334538 0.213348 -0.106113
0.0329264 0.218314 -0.105365
0.0329143 0.218838 -0.10584
0.0334369 0.213396 -0.107111
0.0329406 0.212893 -0.107127
0.0329023 0.219361 -0.106316
0.0328902 0.219884 -0.106791
0.0334199 0.213444 -0.10811
0.0329236 0.21294 -0.108126
0.0333695 0.220436 -0.107774
0.0328732 0.219932 -0.10779
0.0334029 0.213492 -0.109109
0.0329066 0.212988 -0.109125
0.0328611 0.220456 -0.108265
0.032849 0.220979 -0.108741
0.0328945 0.213512 -0.1096
0.0328824 0.214035 -0.110075
0.0333788 0.214538 -0.11006
0.0328321 0.221027 -0.109739
0.0333618 0.214586 -0.111058
0.0328655 0.214083 -0.111074
0.0328223 0.220076 -0.110786
0.0328272 0.220551 -0.110263
0.0333186 0.220579 -0.11077
0.0333448 0.214634 -0.112057
0.0328485 0.214131 -0.112073
0.0328053 0.220124 -0.111785
0.0328364 0.214654 -0.112548
0.0328243 0.215177 -0.113023
0.0333206 0.215681 -0.113008
0.0328027 0.218174 -0.112879
0.0328076 0.218649 -0.112356
0.0328004 0.219648 -0.112308
0.0328122 0.215701 -0.113499
0.032805 0.2167 -0.113451
0.0327978 0.217698 -0.113403
0.0324736 0.215242 -0.104003
0.0319796 0.213264 -0.10459
0.0319747 0.212789 -0.105113
0.032471 0.213292 -0.105097
0.0319724 0.214263 -0.104542
0.0319652 0.215262 -0.104494
0.031958 0.216261 -0.104446
0.0319508 0.21726 -0.104398
0.0319387 0.217783 -0.104873
0.0319577 0.212837 -0.106112
0.0319266 0.218306 -0.105349
0.0319145 0.21883 -0.105824
0.0319407 0.212885 -0.10711
0.0319024 0.219353 -0.106299
0.0318903 0.219876 -0.106775
0.0319238 0.212932 -0.108109
0.0318734 0.219924 -0.107773
0.0319068 0.21298 -0.109108
0.0323527 0.220475 -0.108756
0.0318564 0.219972 -0.108772
0.0323861 0.213532 -0.110091
0.0318898 0.213028 -0.110107
0.0323357 0.220523 -0.109755
0.0318394 0.22002 -0.109771
0.0323691 0.213579 -0.11109
0.0318728 0.213076 -0.111105
0.0318224 0.220068 -0.110769
0.0318607 0.213599 -0.111581
0.0318487 0.214123 -0.112056
0.0318055 0.220116 -0.111768
0.032328 0.214674 -0.113039
0.0318317 0.214171 -0.113055
0.0318029 0.218166 -0.112863
0.0318078 0.218641 -0.112339
0.0318006 0.21964 -0.112291
0.0318196 0.214694 -0.11353
0.0318124 0.215693 -0.113482
0.0318052 0.216692 -0.113434
0.031798 0.21769 -0.113386
0.0319651 0.182971 -0.120059
0.0319602 0.182495 -0.120583
0.0324565 0.182999 -0.120567
0.0324493 0.183998 -0.120519
0.0319579 0.18397 -0.120011
0.0319458 0.184493 -0.120487
0.0319697 0.180022 -0.121202
0.0319648 0.179547 -0.121725
0.0324611 0.18005 -0.12171
0.0324539 0.181049 -0.121662
0.0319625 0.181021 -0.121154
0.0324467 0.182048 -0.121614
0.0319553 0.18202 -0.121106
0.0324395 0.183047 -0.121566
0.0324323 0.184045 -0.121518
0.0319337 0.185016 -0.120962
0.0324251 0.185044 -0.12147
0.0324179 0.186043 -0.121422
0.0319265 0.186015 -0.120914
0.0324107 0.187042 -0.121374
0.0319193 0.187014 -0.120866
0.0319072 0.187537 -0.121341
0.0319527 0.18007 -0.122201
0.0319455 0.181069 -0.122153
0.0319383 0.182068 -0.122105
0.0319311 0.183067 -0.122057
0.031919 0.18359 -0.122532
0.0324153 0.184093 -0.122516
0.0324081 0.185092 -0.122468
0.0324009 0.186091 -0.12242
0.0323937 0.18709 -0.122372
0.0318951 0.188061 -0.121817
0.0323865 0.188089 -0.122324
0.031883 0.188584 -0.122292
0.0319069 0.184113 -0.123007
0.0318997 0.185112 -0.122959
0.0318925 0.186111 -0.122911
0.0318853 0.18711 -0.122863
0.0318781 0.188109 -0.122815
0.0309797 0.213256 -0.104573
0.0309748 0.212781 -0.105096
0.0309725 0.214255 -0.104525
0.0309653 0.215254 -0.104477
0.0309581 0.216253 -0.104429
0.0309509 0.217252 -0.104381
0.0309389 0.217775 -0.104857
0.03097 0.212305 -0.10562
0.0309651 0.21183 -0.106143
0.0314614 0.212333 -0.106127
0.0309268 0.218298 -0.105332
0.0309147 0.218822 -0.105807
0.0314444 0.212381 -0.107126
0.0309481 0.211878 -0.107142
0.031394 0.219373 -0.10679
0.0308977 0.218869 -0.106806
0.0314274 0.212429 -0.108125
0.0309311 0.211926 -0.108141
0.0308856 0.219393 -0.107281
0.0308735 0.219916 -0.107757
0.0314105 0.212477 -0.109124
0.0309141 0.211973 -0.109139
0.0308566 0.219964 -0.108755
0.0313935 0.212525 -0.110122
0.0308972 0.212021 -0.110138
0.0308396 0.220012 -0.109754
0.0313765 0.212573 -0.111121
0.0308802 0.212069 -0.111137
0.0308226 0.22006 -0.110753
0.0308681 0.212593 -0.111612
0.030856 0.213116 -0.112087
0.0313523 0.213619 -0.112072
0.0308128 0.219109 -0.1118
0.0308177 0.219584 -0.111276
0.0313092 0.219612 -0.111784
0.0313354 0.213667 -0.11307
0.0308391 0.213164 -0.113086
0.0308031 0.218158 -0.112846
0.030808 0.218633 -0.112323
0.030827 0.213687 -0.113561
0.0308198 0.214686 -0.113514
0.0308126 0.215685 -0.113466
0.0308054 0.216684 -0.113418
0.0307982 0.217682 -0.11337
0.031011 0.17892 -0.119236
0.0310061 0.178444 -0.119759
0.0315024 0.178948 -0.119743
0.0314952 0.179946 -0.119695
0.0310038 0.179919 -0.119188
0.031488 0.180945 -0.119647
0.0309966 0.180917 -0.11914
0.0314808 0.181944 -0.1196
0.0309894 0.181916 -0.119092
0.0314736 0.182943 -0.119552
0.0309822 0.182915 -0.119044
0.0314664 0.183942 -0.119504
0.030975 0.183914 -0.118996
0.0314592 0.184941 -0.119456
0.0309678 0.184913 -0.118948
0.0309557 0.185436 -0.119423
0.0310228 0.174972 -0.120426
0.0310179 0.174497 -0.12095
0.0315142 0.175 -0.120934
0.031507 0.175999 -0.120886
0.0310156 0.175971 -0.120378
0.0314998 0.176998 -0.120838
0.0310084 0.17697 -0.12033
0.0314926 0.177997 -0.12079
0.0310012 0.177969 -0.120282
0.0314854 0.178995 -0.120742
0.0314782 0.179994 -0.120694
0.031471 0.180993 -0.120646
0.0314638 0.181992 -0.120598
0.0314423 0.184988 -0.120454
0.0309436 0.185959 -0.119899
0.0314351 0.185987 -0.120406
0.0314279 0.186986 -0.120358
0.0309364 0.186958 -0.119851
0.0309243 0.187481 -0.120326
0.0310058 0.17502 -0.121425
0.0309937 0.175543 -0.121901
0.0314901 0.176047 -0.121885
0.0314829 0.177046 -0.121837
0.0314757 0.178045 -0.121789
0.0314685 0.179043 -0.121741
0.0314037 0.188033 -0.121309
0.0309123 0.188005 -0.120801
0.0313965 0.189032 -0.121261
0.0309051 0.189004 -0.120753
0.0313893 0.19003 -0.121213
0.0308979 0.190002 -0.120705
0.0308858 0.190526 -0.121181
0.0309817 0.176067 -0.122376
0.0309745 0.177066 -0.122328
0.0309673 0.178064 -0.12228
0.0309552 0.178588 -0.122755
0.0314515 0.179091 -0.12274
0.0314443 0.18009 -0.122692
0.0314371 0.181089 -0.122644
0.0314299 0.182088 -0.122596
0.0314227 0.183086 -0.122548
0.0313795 0.189079 -0.12226
0.0313723 0.190078 -0.122212
0.0308737 0.191049 -0.121656
0.0313651 0.191077 -0.122164
0.0308616 0.191572 -0.122131
0.0309431 0.179111 -0.123231
0.0309359 0.18011 -0.123183
0.0309287 0.181109 -0.123135
0.0309215 0.182108 -0.123087
0.0309143 0.183106 -0.123039
0.0309071 0.184105 -0.122991
0.0308999 0.185104 -0.122943
0.0308927 0.186103 -0.122895
0.0308806 0.186626 -0.12337
0.0313769 0.18713 -0.123354
0.0313697 0.188128 -0.123306
0.0313625 0.189127 -0.123258
0.0313553 0.190126 -0.12321
0.0308567 0.191097 -0.122655
0.0308518 0.190622 -0.123178
0.0308685 0.18715 -0.123845
0.0308613 0.188148 -0.123797
0.0308541 0.189147 -0.12375
0.0308469 0.190146 -0.123702
0.0303342 0.184851 -0.0969117
0.0303293 0.184375 -0.097435
0.0308256 0.184879 -0.0974193
0.0308184 0.185877 -0.0973714
0.030327 0.185849 -0.0968637
0.0308112 0.186876 -0.0973234
0.0303198 0.186848 -0.0968157
0.030804 0.187875 -0.0972754
0.0303126 0.187847 -0.0967677
0.0307968 0.188874 -0.0972274
0.0303054 0.188846 -0.0967197
0.0307896 0.189873 -0.0971794
0.0302982 0.189845 -0.0966718
0.0302861 0.190368 -0.0971471
0.0308087 0.184926 -0.0984181
0.0303123 0.184423 -0.0984337
0.0308015 0.185925 -0.0983701
0.0307943 0.186924 -0.0983221
0.0307871 0.187923 -0.0982741
0.0307799 0.188922 -0.0982261
0.0307727 0.18992 -0.0981781
0.030274 0.190891 -0.0976225
0.0307655 0.190919 -0.0981301
0.0307583 0.191918 -0.0980822
0.0302668 0.19189 -0.0975745
0.0302548 0.192414 -0.0980499
0.0303002 0.184946 -0.0989091
0.0302882 0.18547 -0.0993845
0.0307845 0.185973 -0.0993688
0.0307773 0.186972 -0.0993208
0.0307701 0.187971 -0.0992728
0.0307629 0.18897 -0.0992248
0.0307557 0.189968 -0.0991768
0.0307485 0.190967 -0.0991289
0.0307413 0.191966 -0.0990809
0.0302378 0.192461 -0.0990486
0.0302761 0.185993 -0.0998598
0.030264 0.186516 -0.100335
0.0307603 0.18702 -0.10032
0.0307531 0.188019 -0.100272
0.0307459 0.189017 -0.100224
0.0307387 0.190016 -0.100176
0.0307315 0.191015 -0.100128
0.0307243 0.192014 -0.10008
0.0302257 0.192985 -0.0995239
0.0307171 0.193013 -0.100032
0.0302136 0.193508 -0.0999993
0.0302519 0.18704 -0.100811
0.0302447 0.188038 -0.100763
0.0302375 0.189037 -0.100715
0.0302303 0.190036 -0.100667
0.0302231 0.191035 -0.100619
0.0302159 0.192034 -0.100571
0.0302087 0.193033 -0.100523
0.0299871 0.21225 -0.104604
0.0299822 0.211774 -0.105128
0.0304785 0.212277 -0.105112
0.0299799 0.213248 -0.104556
0.0299727 0.214247 -0.104509
0.0299655 0.215246 -0.104461
0.0299583 0.216245 -0.104413
0.0299462 0.216768 -0.104888
0.0304425 0.217272 -0.104872
0.0299773 0.211299 -0.105651
0.0299724 0.210823 -0.106175
0.0304687 0.211326 -0.106159
0.0299341 0.217291 -0.105363
0.0299269 0.21829 -0.105315
0.0299149 0.218814 -0.105791
0.0304518 0.211374 -0.107158
0.0299555 0.210871 -0.107173
0.0303942 0.219365 -0.106774
0.0299028 0.219337 -0.106266
0.0298907 0.21986 -0.106741
0.0304348 0.211422 -0.108156
0.0299385 0.210919 -0.108172
0.0298737 0.219908 -0.10774
0.0304178 0.21147 -0.109155
0.0299215 0.210967 -0.109171
0.030353 0.220459 -0.108723
0.0298616 0.220432 -0.108215
0.0298495 0.220955 -0.108691
0.0304009 0.211518 -0.110154
0.0299045 0.211014 -0.110169
0.0298398 0.220004 -0.109738
0.0298446 0.220479 -0.109214
0.0303839 0.211566 -0.111152
0.0298876 0.211062 -0.111168
0.0298228 0.220052 -0.110736
0.0303669 0.211614 -0.112151
0.0298706 0.21111 -0.112167
0.0303597 0.212612 -0.112103
0.029813 0.219101 -0.111783
0.0298179 0.219576 -0.11126
0.0303499 0.211661 -0.11315
0.0298536 0.211158 -0.113165
0.0303427 0.21266 -0.113102
0.0298032 0.21815 -0.11283
0.0298081 0.218625 -0.112306
0.0298415 0.211681 -0.113641
0.0298343 0.21268 -0.113593
0.0298222 0.213204 -0.114068
0.0303186 0.213707 -0.114053
0.0303114 0.214706 -0.114005
0.0303042 0.215705 -0.113957
0.0298007 0.2162 -0.113924
0.0298055 0.216676 -0.113401
0.0297983 0.217674 -0.113353
0.0298102 0.213727 -0.114544
0.029803 0.214726 -0.114496
0.0297958 0.215725 -0.114448
0.0300163 0.182811 -0.11703
0.0300114 0.182336 -0.117553
0.0305077 0.182839 -0.117537
0.0305005 0.183838 -0.11749
0.0300091 0.18381 -0.116982
0.0304933 0.184837 -0.117442
0.0300019 0.184809 -0.116934
0.0299898 0.185332 -0.117409
0.0300569 0.174869 -0.118412
0.030052 0.174393 -0.118936
0.0305483 0.174896 -0.11892
0.0305412 0.175895 -0.118872
0.0300497 0.175867 -0.118364
0.030534 0.176894 -0.118824
0.0300425 0.176866 -0.118316
0.0305268 0.177893 -0.118776
0.0300353 0.177865 -0.118268
0.0305196 0.178892 -0.118728
0.0300281 0.178864 -0.11822
0.0305124 0.179891 -0.11868
0.0300209 0.179863 -0.118173
0.0305052 0.180889 -0.118632
0.0300137 0.180861 -0.118125
0.030498 0.181888 -0.118584
0.0300065 0.18186 -0.118077
0.0304908 0.182887 -0.118536
0.0304836 0.183886 -0.118488
0.0304764 0.184885 -0.11844
0.0299777 0.185856 -0.117885
0.0304692 0.185884 -0.118392
0.030462 0.186882 -0.118344
0.0299705 0.186854 -0.117837
0.0299585 0.187378 -0.118312
0.0300471 0.173918 -0.119459
0.0300423 0.173442 -0.119982
0.0305386 0.173946 -0.119967
0.0305314 0.174944 -0.119919
0.0305242 0.175943 -0.119871
0.030517 0.176942 -0.119823
0.0305098 0.177941 -0.119775
0.0304522 0.185931 -0.119391
0.030445 0.18693 -0.119343
0.0299464 0.187901 -0.118787
0.0304378 0.187929 -0.119295
0.0304306 0.188928 -0.119247
0.0299392 0.1889 -0.118739
0.0304234 0.189927 -0.119199
0.029932 0.189899 -0.118691
0.0299199 0.190422 -0.119167
0.0305216 0.173993 -0.120965
0.0300253 0.17349 -0.120981
0.0304208 0.187977 -0.120294
0.0304136 0.188976 -0.120246
0.0304064 0.189975 -0.120198
0.0299078 0.190945 -0.119642
0.0303992 0.190973 -0.12015
0.0298957 0.191469 -0.120117
0.0300132 0.174013 -0.121457
0.0300011 0.174537 -0.121932
0.0304974 0.17504 -0.121916
0.0303823 0.191021 -0.121148
0.0298836 0.191992 -0.120593
0.0303751 0.19202 -0.1211
0.0298716 0.192515 -0.121068
0.029989 0.17506 -0.122407
0.0299818 0.176059 -0.122359
0.0299746 0.177058 -0.122311
0.0299625 0.177581 -0.122787
0.0304589 0.178084 -0.122771
0.0303581 0.192068 -0.122099
0.0298595 0.193039 -0.121544
0.0303509 0.193067 -0.122051
0.0298474 0.193562 -0.122019
0.0299505 0.178104 -0.123262
0.0299433 0.179103 -0.123214
0.0299361 0.180102 -0.123166
0.0299289 0.181101 -0.123118
0.0299217 0.1821 -0.12307
0.0299096 0.182623 -0.123545
0.0304059 0.183126 -0.12353
0.0303987 0.184125 -0.123482
0.0303915 0.185124 -0.123434
0.0303843 0.186123 -0.123386
0.0303483 0.191117 -0.123146
0.0303411 0.192116 -0.123098
0.0298425 0.193087 -0.122542
0.0298376 0.192611 -0.123066
0.0298975 0.183146 -0.124021
0.0298903 0.184145 -0.123973
0.0298831 0.185144 -0.123925
0.0298759 0.186143 -0.123877
0.0298687 0.187142 -0.123829
0.0298615 0.18814 -0.123781
0.0298543 0.189139 -0.123733
0.0298471 0.190138 -0.123685
0.0298399 0.191137 -0.123637
0.0298327 0.192136 -0.123589
0.0293873 0.179801 -0.0961363
0.0293824 0.179325 -0.0966596
0.0298788 0.179829 -0.0966439
0.0298716 0.180827 -0.096596
0.0293801 0.180799 -0.0960883
0.0298644 0.181826 -0.096548
0.0293729 0.181798 -0.0960403
0.0298572 0.182825 -0.0965
0.0293657 0.182797 -0.0959923
0.02985 0.183824 -0.096452
0.0293585 0.183796 -0.0959443
0.0293465 0.184319 -0.0964197
0.0293704 0.179848 -0.097135
0.0293583 0.180372 -0.0976104
0.0298546 0.180875 -0.0975947
0.0298474 0.181874 -0.0975467
0.0298402 0.182873 -0.0974987
0.029833 0.183872 -0.0974507
0.0293344 0.184843 -0.0968951
0.0293272 0.185841 -0.0968471
0.02932 0.18684 -0.0967991
0.0293128 0.187839 -0.0967511
0.0293056 0.188838 -0.0967031
0.0292984 0.189837 -0.0966551
0.0297826 0.190863 -0.0971148
0.0292912 0.190836 -0.0966072
0.0292791 0.191359 -0.0970825
0.0293462 0.180895 -0.0980857
0.029339 0.181894 -0.0980377
0.0293269 0.182417 -0.0985131
0.0298232 0.182921 -0.0984974
0.029816 0.18392 -0.0984494
0.029267 0.191882 -0.0975579
0.0297512 0.192909 -0.0980176
0.0292598 0.192881 -0.0975099
0.029744 0.193908 -0.0979696
0.0292526 0.19388 -0.0974619
0.0292405 0.194403 -0.0979373
0.0293148 0.182941 -0.0989885
0.0293027 0.183464 -0.0994638
0.029799 0.183967 -0.0994481
0.0297918 0.184966 -0.0994002
0.0297343 0.192957 -0.0990163
0.0297271 0.193956 -0.0989683
0.0292284 0.194927 -0.0984126
0.0297199 0.194954 -0.0989203
0.0292164 0.19545 -0.098888
0.0292906 0.183987 -0.0999392
0.0292786 0.184511 -0.100415
0.0297749 0.185014 -0.100399
0.0297677 0.186013 -0.100351
0.0297101 0.194003 -0.099967
0.0297029 0.195002 -0.099919
0.0291994 0.195498 -0.0998867
0.0292665 0.185034 -0.10089
0.0292593 0.186033 -0.100842
0.0292472 0.186556 -0.101317
0.0297435 0.18706 -0.101302
0.0297363 0.188058 -0.101254
0.0297291 0.189057 -0.101206
0.0297219 0.190056 -0.101158
0.0297147 0.191055 -0.10111
0.0297075 0.192054 -0.101062
0.0297003 0.193053 -0.101014
0.0296931 0.194051 -0.100966
0.0291945 0.195022 -0.10041
0.0291896 0.194547 -0.100933
0.0292351 0.18708 -0.101793
0.0292279 0.188078 -0.101745
0.0292207 0.189077 -0.101697
0.0292086 0.189601 -0.102172
0.0297049 0.190104 -0.102156
0.0296977 0.191103 -0.102108
0.0296905 0.192102 -0.10206
0.0291919 0.193072 -0.101505
0.029187 0.192597 -0.102028
0.0291847 0.194071 -0.101457
0.0291965 0.190124 -0.102647
0.0291893 0.191123 -0.102599
0.0291821 0.192121 -0.102551
0.0289873 0.212242 -0.104588
0.0289824 0.211766 -0.105111
0.0289801 0.21324 -0.10454
0.0289729 0.214239 -0.104492
0.0289657 0.215238 -0.104444