<VTKFile type="UnstructuredGrid" version="0.1" byte_order="BigEndian">
  <UnstructuredGrid>
    <Piece NumberOfPoints="21372" NumberOfCells="42716">
      <PointData>
        <DataArray type="Float64" Name="position" NumberOfComponents="3" format="ascii">
0.0465448 0.213269 -0.108142
0.0465368 0.212749 -0.108622
0.0470385 0.213246 -0.108648
0.0470421 0.214245 -0.108689
0.0465483 0.214268 -0.108183
0.0470456 0.215245 -0.10873
0.0465518 0.215267 -0.108224
0.0470491 0.216244 -0.108771
0.0465554 0.216266 -0.108265
0.0465509 0.216745 -0.108785
0.0470261 0.213206 -0.109647
0.0465244 0.212708 -0.109621
0.0470296 0.214205 -0.109688
0.0470331 0.215204 -0.109729
0.0470366 0.216203 -0.10977
0.0465384 0.216705 -0.109784
0.0470136 0.213165 -0.110646
0.0465119 0.212667 -0.11062
0.0470172 0.214164 -0.110687
0.0470207 0.215163 -0.110728
0.0470242 0.216162 -0.110769
0.046526 0.216664 -0.110783
0.0470012 0.213124 -0.111645
0.0464995 0.212626 -0.111619
0.0470047 0.214123 -0.111686
0.0470082 0.215122 -0.111727
0.0470117 0.216121 -0.111768
0.0465135 0.216623 -0.111782
0.046495 0.213106 -0.112139
0.0464985 0.214105 -0.11218
0.046502 0.215104 -0.112221
0.0465056 0.216103 -0.112261
0.0455698 0.213354 -0.106132
0.0455618 0.212834 -0.106611
0.0460635 0.213332 -0.106638
0.0460671 0.214331 -0.106679
0.0455733 0.214353 -0.106173
0.0460706 0.21533 -0.106719
0.0455768 0.215353 -0.106214
0.0455724 0.215832 -0.106734
0.0455538 0.212314 -0.10709
0.0455459 0.211794 -0.107569
0.0460476 0.212292 -0.107596
0.0460511 0.213291 -0.107637
0.0460546 0.21429 -0.107678
0.0460581 0.215289 -0.107718
0.0455599 0.215791 -0.107733
0.0460351 0.212251 -0.108595
0.0455334 0.211754 -0.108568
0.0455475 0.21575 -0.108732
0.0460492 0.216248 -0.108758
0.0460227 0.21221 -0.109594
0.0455209 0.211713 -0.109568
0.0460367 0.216207 -0.109757
0.045535 0.215709 -0.109731
0.0460102 0.21217 -0.110593
0.0455085 0.211672 -0.110567
0.0460243 0.216166 -0.110757
0.0455226 0.215669 -0.11073
0.045504 0.212151 -0.111087
0.0454996 0.21263 -0.111607
0.0455066 0.214629 -0.111688
0.0455146 0.215149 -0.111209
0.0460083 0.215126 -0.111715
0.0460118 0.216125 -0.111756
0.0454916 0.21211 -0.112086
0.0454836 0.211591 -0.112565
0.0459853 0.212088 -0.112591
0.0459888 0.213087 -0.112632
0.0459923 0.214086 -0.112673
0.0454941 0.214588 -0.112687
0.0454791 0.21207 -0.113085
0.0454826 0.213069 -0.113126
0.0454862 0.214068 -0.113166
0.0445664 0.212359 -0.106079
0.0445584 0.211839 -0.106558
0.0450601 0.212337 -0.106585
0.0445699 0.213358 -0.10612
0.0445734 0.214358 -0.106161
0.0445689 0.214837 -0.10668
0.0450707 0.215334 -0.106707
0.0445459 0.211798 -0.107557
0.0450582 0.215293 -0.107706
0.0445565 0.214796 -0.10768
0.0445335 0.211758 -0.108556
0.0450457 0.215253 -0.108705
0.044544 0.214755 -0.108679
0.044521 0.211717 -0.109555
0.0450333 0.215212 -0.109704
0.0445316 0.214714 -0.109678
0.0445086 0.211676 -0.110554
0.0445156 0.213674 -0.110636
0.0445236 0.214194 -0.110157
0.0450173 0.214172 -0.110663
0.0450208 0.215171 -0.110703
0.0449978 0.212133 -0.11158
0.0444961 0.211635 -0.111553
0.0450049 0.214131 -0.111662
0.0445032 0.213634 -0.111635
0.0444837 0.211595 -0.112553
0.0444987 0.214113 -0.112155
0.0444942 0.214592 -0.112675
0.0444792 0.212074 -0.113073
0.0444827 0.213073 -0.113113
0.0444862 0.214072 -0.113154
0.0435789 0.212404 -0.105067
0.0435709 0.211884 -0.105547
0.0440726 0.212382 -0.105573
0.0440762 0.213381 -0.105614
0.0435824 0.213403 -0.105108
0.0440797 0.21438 -0.105655
0.0435859 0.214402 -0.105149
0.0435815 0.214881 -0.105669
0.0435585 0.211843 -0.106546
0.043569 0.214841 -0.106668
0.043546 0.211802 -0.107545
0.0435531 0.213801 -0.107626
0.043561 0.214321 -0.107147
0.0440548 0.214298 -0.107653
0.043538 0.211282 -0.108024
0.0435301 0.210763 -0.108503
0.0440318 0.21126 -0.10853
0.0440423 0.214258 -0.108652
0.0435406 0.21376 -0.108626
0.0435256 0.211242 -0.109023
0.0435211 0.211721 -0.109543
0.0440299 0.214217 -0.109651
0.0435281 0.213719 -0.109625
0.0435087 0.21168 -0.110542
0.0435157 0.213678 -0.110624
0.0434962 0.211639 -0.111541
0.0435032 0.213638 -0.111623
0.0434882 0.211119 -0.11202
0.0434802 0.210599 -0.112499
0.043982 0.211097 -0.112526
0.0434988 0.214117 -0.112143
0.0434943 0.214596 -0.112663
0.0434758 0.211079 -0.113019
0.0434793 0.212078 -0.11306
0.0434828 0.213077 -0.113101
0.0434863 0.214076 -0.113142
0.0430727 0.212386 -0.105561
0.0430762 0.213385 -0.105602
0.0430798 0.214384 -0.105643
0.042563 0.211368 -0.106013
0.042555 0.210848 -0.106493
0.0430568 0.211346 -0.106519
0.0425665 0.212367 -0.106054
0.0425701 0.213366 -0.106095
0.0430673 0.214343 -0.106642
0.0425656 0.213846 -0.106615
0.0430443 0.211305 -0.107518
0.0425426 0.210807 -0.107492
0.0425531 0.213805 -0.107614
0.0425301 0.210767 -0.108491
0.0425372 0.212765 -0.108572
0.0425452 0.213285 -0.108093
0.0430389 0.213262 -0.108599
0.0430194 0.211223 -0.109516
0.0425177 0.210726 -0.10949
0.0425327 0.213244 -0.109092
0.0425282 0.213723 -0.109612
0.0430069 0.211183 -0.110516
0.0425052 0.210685 -0.110489
0.0425158 0.213682 -0.110611
0.0429945 0.211142 -0.111515
0.0424928 0.210644 -0.111488
0.0425033 0.213642 -0.111611
0.0424803 0.210603 -0.112487
0.0429926 0.214098 -0.112636
0.0424909 0.213601 -0.11261
0.0424759 0.211083 -0.113007
0.0424794 0.212082 -0.113048
0.0424829 0.213081 -0.113089
0.0415596 0.210373 -0.10596
0.0415516 0.209853 -0.106439
0.0420533 0.210351 -0.106466
0.0415631 0.211372 -0.106001
0.0415666 0.212371 -0.106042
0.0415622 0.21285 -0.106562
0.0420639 0.213348 -0.106589
0.0420409 0.21031 -0.107465
0.0415392 0.209812 -0.107439
0.0420514 0.213307 -0.107588
0.0415497 0.21281 -0.107561
0.0420284 0.210269 -0.108464
0.0415267 0.209771 -0.108438
0.0415373 0.212769 -0.10856
0.042016 0.210228 -0.109463
0.0415142 0.209731 -0.109437
0.0420265 0.213226 -0.109586
0.0415248 0.212728 -0.109559
0.0420035 0.210187 -0.110462
0.0415018 0.20969 -0.110436
0.0420141 0.213185 -0.110585
0.0415123 0.212687 -0.110558
0.0419911 0.210147 -0.111461
0.0414893 0.209649 -0.111435
0.0420016 0.213144 -0.111584
0.0414999 0.212647 -0.111557
0.0419786 0.210106 -0.112461
0.0414769 0.209608 -0.112434
0.0419892 0.213103 -0.112583
0.0414874 0.212606 -0.112556
0.0414724 0.210087 -0.112954
0.0414759 0.211087 -0.112995
0.0414795 0.212086 -0.113036
0.0405721 0.210418 -0.104949
0.0405641 0.209898 -0.105428
0.0410659 0.210395 -0.105455
0.0405677 0.210897 -0.105469
0.0405562 0.209378 -0.105907
0.0405482 0.208858 -0.106386
0.0410499 0.209355 -0.106413
0.0405632 0.211376 -0.105989
0.0405587 0.211855 -0.106509
0.0410604 0.212353 -0.106535
0.0410374 0.209315 -0.107412
0.0405357 0.208817 -0.107385
0.041048 0.212312 -0.107534
0.0405463 0.211815 -0.107508
0.041025 0.209274 -0.108411
0.0405233 0.208776 -0.108385
0.0405418 0.212294 -0.108028
0.0405373 0.212773 -0.108548
0.0410125 0.209233 -0.10941
0.0405108 0.208735 -0.109384
0.0405249 0.212732 -0.109547
0.0410001 0.209192 -0.110409
0.0404984 0.208695 -0.110383
0.0405124 0.212691 -0.110546
0.0409876 0.209151 -0.111408
0.0404859 0.208654 -0.111382
0.0405 0.212651 -0.111545
0.0409752 0.209111 -0.112407
0.0404735 0.208613 -0.112381
0.0404875 0.21261 -0.112544
0.040469 0.209092 -0.112901
0.0404645 0.209572 -0.113421
0.0409662 0.210069 -0.113447
0.040468 0.210571 -0.113462
0.040476 0.211091 -0.112982
0.0404795 0.21209 -0.113023
0.0404601 0.210051 -0.113941
0.0395687 0.209423 -0.104896
0.0395607 0.208903 -0.105375
0.0400624 0.2094 -0.105401
0.0395722 0.210422 -0.104937
0.0395677 0.210901 -0.105457
0.0395527 0.208383 -0.105854
0.0395447 0.207863 -0.106333
0.0400465 0.20836 -0.10636
0.040057 0.211358 -0.106482
0.0395553 0.21086 -0.106456
0.040034 0.208319 -0.107359
0.0395323 0.207822 -0.107332
0.0395508 0.211339 -0.106976
0.0395464 0.211819 -0.107496
0.0400216 0.208279 -0.108358
0.0395198 0.207781 -0.108331
0.0400356 0.212275 -0.108521
0.0395339 0.211778 -0.108495
0.0400091 0.208238 -0.109357
0.0395074 0.20774 -0.10933
0.0395294 0.212257 -0.109015
0.039525 0.212736 -0.109535
0.0399966 0.208197 -0.110356
0.0394949 0.2077 -0.11033
0.0395125 0.212695 -0.110534
0.0399842 0.208156 -0.111355
0.0394825 0.207659 -0.111329
0.0394965 0.211655 -0.111492
0.0395045 0.212175 -0.111013
0.0399983 0.212153 -0.111519
0.0399717 0.208116 -0.112354
0.03947 0.207618 -0.112328
0.0399858 0.212112 -0.112518
0.0394841 0.211615 -0.112491
0.0394656 0.208097 -0.112848
0.0394611 0.208576 -0.113368
0.0399628 0.209074 -0.113394
0.0394681 0.210575 -0.113449
0.0394761 0.211095 -0.11297
0.0394566 0.209056 -0.113888
0.0394601 0.210055 -0.113928
0.0385653 0.208427 -0.104843
0.0385573 0.207907 -0.105322
0.039059 0.208405 -0.105348
0.0385688 0.209427 -0.104884
0.0385643 0.209906 -0.105403
0.039066 0.210403 -0.10543
0.0385448 0.207867 -0.106321
0.0390536 0.210363 -0.106429
0.0385519 0.209865 -0.106403
0.0385324 0.207826 -0.10732
0.0385474 0.210344 -0.106923
0.0385429 0.210823 -0.107442
0.0390446 0.211321 -0.107469
0.0385244 0.207306 -0.107799
0.0385164 0.206786 -0.108278
0.0390181 0.207284 -0.108305
0.0385385 0.211303 -0.107962
0.038534 0.211782 -0.108482
0.0390057 0.207243 -0.109304
0.038504 0.206745 -0.109277
0.0390232 0.212239 -0.109508
0.0385215 0.211741 -0.109481
0.0384995 0.207224 -0.109797
0.038495 0.207704 -0.110317
0.0390108 0.212198 -0.110507
0.0385091 0.2117 -0.110481
0.0384826 0.207663 -0.111316
0.0384931 0.21066 -0.111439
0.0385011 0.21118 -0.11096
0.0389948 0.211158 -0.111465
0.0384701 0.207622 -0.112315
0.0389824 0.211117 -0.112464
0.0384807 0.210619 -0.112438
0.0389594 0.208079 -0.113341
0.0384577 0.207581 -0.113315
0.0384682 0.210579 -0.113437
0.0384532 0.20806 -0.113834
0.0384567 0.20906 -0.113875
0.0384602 0.210059 -0.113916
0.0375618 0.207432 -0.10479
0.0375538 0.206912 -0.105269
0.0380556 0.20741 -0.105295
0.0375653 0.208431 -0.10483
0.0375609 0.208911 -0.10535
0.0380626 0.209408 -0.105377
0.0380431 0.207369 -0.106294
0.0375414 0.206872 -0.106268
0.0375564 0.20939 -0.10587
0.0375519 0.209869 -0.10639
0.0380307 0.207328 -0.107293
0.0375289 0.206831 -0.107267
0.0380412 0.210326 -0.107416
0.0375395 0.209828 -0.107389
0.0375165 0.20679 -0.108266
0.037535 0.210307 -0.107909
0.0375306 0.210787 -0.108429
0.0380323 0.211284 -0.108456
0.037504 0.206749 -0.109265
0.0380198 0.211243 -0.109455
0.0375181 0.210746 -0.109428
0.0379933 0.207206 -0.110291
0.0374916 0.206708 -0.110264
0.0380074 0.211203 -0.110454
0.0375056 0.210705 -0.110427
0.0379808 0.207165 -0.11129
0.0374791 0.206668 -0.111263
0.0374932 0.210664 -0.111427
0.0379684 0.207124 -0.112289
0.0374667 0.206627 -0.112262
0.0374807 0.210624 -0.112426
0.0379559 0.207084 -0.113288
0.0374542 0.206586 -0.113261
0.0374683 0.210583 -0.113425
0.0374498 0.207065 -0.113781
0.0374533 0.208064 -0.113822
0.0374568 0.209064 -0.113863
0.0374603 0.210063 -0.113904
0.0365584 0.206437 -0.104736
0.0365504 0.205917 -0.105216
0.0370521 0.206415 -0.105242
0.0365619 0.207436 -0.104777
0.0365654 0.208436 -0.104818
0.036561 0.208915 -0.105338
0.0370397 0.206374 -0.106241
0.036538 0.205876 -0.106215
0.0370502 0.209371 -0.106364
0.0365485 0.208874 -0.106337
0.0370272 0.206333 -0.10724
0.0365255 0.205836 -0.107214
0.036544 0.209353 -0.106857
0.0365396 0.209832 -0.107377
0.0370148 0.206292 -0.108239
0.0365131 0.205795 -0.108213
0.0365351 0.210311 -0.107897
0.0365306 0.210791 -0.108417
0.0370023 0.206252 -0.109238
0.0365006 0.205754 -0.109212
0.0365182 0.21075 -0.109416
0.0369899 0.206211 -0.110238
0.0364882 0.205713 -0.110211
0.0365057 0.210709 -0.110415
0.0369774 0.20617 -0.111237
0.0364757 0.205673 -0.11121
0.0364933 0.210668 -0.111414
0.036965 0.206129 -0.112236
0.0364632 0.205632 -0.112209
0.0364808 0.210628 -0.112413
0.0364588 0.206111 -0.112729
0.0364543 0.20659 -0.113249
0.0364684 0.210587 -0.113412
0.0364498 0.207069 -0.113769
0.0364534 0.208068 -0.11381
0.0364569 0.209068 -0.113851
0.0364604 0.210067 -0.113892
0.0355585 0.206441 -0.104724
0.0355505 0.205921 -0.105203
0.035562 0.20744 -0.104765
0.0355575 0.20792 -0.105285
0.0360592 0.208417 -0.105311
0.0355425 0.205401 -0.105682
0.0355345 0.204881 -0.106162
0.0360362 0.205379 -0.106188
0.0355531 0.208399 -0.105805
0.0355486 0.208878 -0.106325
0.0360238 0.205338 -0.107187
0.0355221 0.204841 -0.107161
0.0355441 0.209357 -0.106845
0.0355397 0.209836 -0.107365
0.0360113 0.205297 -0.108186
0.0355096 0.2048 -0.10816
0.0360289 0.210293 -0.10839
0.0355272 0.209796 -0.108364
0.0359989 0.205257 -0.109185
0.0354972 0.204759 -0.109159
0.0355227 0.210275 -0.108884
0.0355183 0.210754 -0.109404
0.0359864 0.205216 -0.110184
0.0354847 0.204718 -0.110158
0.0355058 0.210713 -0.110403
0.035974 0.205175 -0.111184
0.0354723 0.204677 -0.111157
0.0354934 0.210672 -0.111402
0.0354678 0.205157 -0.111677
0.0354633 0.205636 -0.112197
0.0354809 0.210632 -0.112401
0.0359526 0.206093 -0.113223
0.0354509 0.205595 -0.113196
0.0354685 0.210591 -0.1134
0.0354464 0.206074 -0.113716
0.0354419 0.206553 -0.114236
0.0359437 0.207051 -0.114262
0.0359472 0.20805 -0.114303
0.035449 0.208552 -0.114318
0.035457 0.209072 -0.113838
0.0354605 0.210071 -0.113879
0.0354375 0.207033 -0.114756
0.035441 0.208032 -0.114797
0.0345586 0.206445 -0.104712
0.0345506 0.205925 -0.105191
0.0345541 0.206924 -0.105232
0.0350558 0.207422 -0.105258
0.0345426 0.205405 -0.10567
0.0345346 0.204885 -0.106149
0.0345496 0.207404 -0.105752
0.0345452 0.207883 -0.106272
0.0350469 0.20838 -0.106298
0.0345266 0.204365 -0.106628
0.0345186 0.203845 -0.107107
0.0350204 0.204343 -0.107134
0.0345407 0.208362 -0.106792
0.0345362 0.208841 -0.107312
0.0350379 0.209339 -0.107338
0.0350079 0.204302 -0.108133
0.0345062 0.203805 -0.108107
0.0345318 0.20932 -0.107832
0.0345273 0.2098 -0.108352
0.0349955 0.204261 -0.109132
0.0344937 0.203764 -0.109106
0.0345228 0.210279 -0.108871
0.0345184 0.210758 -0.109391
0.034983 0.204221 -0.110131
0.0344813 0.203723 -0.110105
0.0345059 0.210717 -0.110391
0.0344768 0.204202 -0.110625
0.0344723 0.204681 -0.111145
0.0344934 0.210676 -0.11139
0.0349616 0.205138 -0.11217
0.0344599 0.204641 -0.112144
0.034481 0.210636 -0.112389
0.0349492 0.205097 -0.113169
0.0344474 0.2046 -0.113143
0.034465 0.209596 -0.113347
0.034473 0.210116 -0.112868
0.0349667 0.210093 -0.113374
0.034443 0.205079 -0.113663
0.0344385 0.205558 -0.114183
0.0349402 0.206056 -0.114209
0.0344455 0.207557 -0.114264
0.0344535 0.208077 -0.113785
0.0349473 0.208054 -0.114291
0.034457 0.209076 -0.113826
0.034434 0.206037 -0.114703
0.0344376 0.207037 -0.114744
0.0335551 0.20545 -0.104659
0.0335471 0.20493 -0.105138
0.0340489 0.205428 -0.105164
0.0340524 0.206427 -0.105205
0.0335507 0.205929 -0.105179
0.0335392 0.20441 -0.105617
0.0335312 0.20389 -0.106096
0.0340329 0.204388 -0.106123
0.0335462 0.206408 -0.105699
0.0335497 0.207408 -0.105739
0.0335452 0.207887 -0.106259
0.0335232 0.20337 -0.106575
0.0335152 0.20285 -0.107054
0.0340169 0.203348 -0.107081
0.0335408 0.208366 -0.106779
0.0335363 0.208845 -0.107299
0.0340045 0.203307 -0.10808
0.0335028 0.202809 -0.108053
0.0335318 0.209324 -0.107819
0.0335274 0.209804 -0.108339
0.033992 0.203266 -0.109079
0.0334903 0.202769 -0.109053
0.0340166 0.21026 -0.109365
0.0335149 0.209763 -0.109338
0.0339796 0.203225 -0.110078
0.0334779 0.202728 -0.110052
0.0335105 0.210242 -0.109858
0.033506 0.210721 -0.110378
0.0334734 0.203207 -0.110572
0.0334689 0.203686 -0.111092
0.0339706 0.204184 -0.111118
0.0334935 0.21068 -0.111377
0.0339582 0.204143 -0.112117
0.0334565 0.203645 -0.112091
0.0334776 0.20964 -0.112336
0.0334855 0.21016 -0.111856
0.0339793 0.210138 -0.112362
0.0339457 0.204102 -0.113116
0.033444 0.203605 -0.11309
0.0334651 0.2096 -0.113335
0.0334395 0.204084 -0.11361
0.0334351 0.204563 -0.11413
0.0339368 0.205061 -0.114156
0.0334456 0.207561 -0.114252
0.0334536 0.208081 -0.113773
0.0334571 0.20908 -0.113814
0.0334306 0.205042 -0.11465
0.0334341 0.206041 -0.11469
0.0334376 0.207041 -0.114731
0.0330489 0.205432 -0.105152
0.0325357 0.203415 -0.105564
0.0325277 0.202895 -0.106043
0.0330295 0.203393 -0.10607
0.0325392 0.204414 -0.105605
0.0325428 0.205413 -0.105645
0.0325463 0.206412 -0.105686
0.0325498 0.207412 -0.105727
0.0325453 0.207891 -0.106247
0.0325153 0.202854 -0.107042
0.0325409 0.20837 -0.106767
0.0325364 0.208849 -0.107287
0.0325028 0.202813 -0.108041
0.0325319 0.209328 -0.107807
0.0325275 0.209808 -0.108327
0.0324904 0.202773 -0.10904
0.032515 0.209767 -0.109326
0.0324779 0.202732 -0.110039
0.0330043 0.210224 -0.110352
0.0325025 0.209726 -0.110325
0.0329672 0.203189 -0.111065
0.0324655 0.202691 -0.111038
0.0329918 0.210183 -0.111351
0.0324901 0.209685 -0.111324
0.0329547 0.203148 -0.112064
0.032453 0.20265 -0.112038
0.0324776 0.209644 -0.112323
0.0324486 0.20313 -0.112557
0.0324441 0.203609 -0.113077
0.0324652 0.209604 -0.113322
0.0329334 0.204066 -0.114103
0.0324316 0.203568 -0.114077
0.0324457 0.207565 -0.11424
0.0324537 0.208085 -0.113761
0.0324572 0.209084 -0.113802
0.0324272 0.204047 -0.114596
0.0324307 0.205046 -0.114637
0.0324342 0.206045 -0.114678
0.0324377 0.207045 -0.114719
0.0322524 0.17187 -0.118285
0.0322444 0.17135 -0.118765
0.0327461 0.171848 -0.118791
0.0327496 0.172847 -0.118832
0.0322559 0.172869 -0.118326
0.0322514 0.173348 -0.118846
0.0322294 0.168832 -0.119162
0.0322214 0.168312 -0.119641
0.0327231 0.168809 -0.119668
0.0327266 0.169809 -0.119709
0.0322329 0.169831 -0.119203
0.0327302 0.170808 -0.119749
0.0322364 0.17083 -0.119244
0.0327337 0.171807 -0.11979
0.0327372 0.172806 -0.119831
0.032247 0.173828 -0.119366
0.0327407 0.173805 -0.119872
0.0327442 0.174804 -0.119913
0.0322505 0.174827 -0.119407
0.0327477 0.175804 -0.119954
0.032254 0.175826 -0.119448
0.0322495 0.176305 -0.119968
0.0322169 0.168791 -0.120161
0.0322205 0.16979 -0.120202
0.032224 0.170789 -0.120243
0.0322275 0.171789 -0.120284
0.032223 0.172268 -0.120804
0.0327247 0.172765 -0.12083
0.0327282 0.173764 -0.120871
0.0327318 0.174764 -0.120912
0.0327353 0.175763 -0.120953
0.0322451 0.176784 -0.120488
0.0327388 0.176762 -0.120993
0.0322406 0.177264 -0.121008
0.0322185 0.172747 -0.121324
0.0322221 0.173746 -0.121364
0.0322256 0.174745 -0.121405
0.0322291 0.175744 -0.121446
0.0322326 0.176744 -0.121487
0.0315358 0.203419 -0.105552
0.0315278 0.202899 -0.106031
0.0315393 0.204418 -0.105592
0.0315428 0.205417 -0.105633
0.0315464 0.206417 -0.105674
0.0315499 0.207416 -0.105715
0.0315454 0.207895 -0.106235
0.0315198 0.202379 -0.10651
0.0315119 0.201859 -0.106989
0.0320136 0.202357 -0.107015
0.0315409 0.208374 -0.106755
0.0315365 0.208853 -0.107275
0.0320011 0.202316 -0.108015
0.0314994 0.201818 -0.107988
0.0320257 0.20931 -0.1083
0.031524 0.208812 -0.108274
0.0319887 0.202275 -0.109014
0.031487 0.201778 -0.108987
0.0315196 0.209292 -0.108794
0.0315151 0.209771 -0.109314
0.0319762 0.202234 -0.110013
0.0314745 0.201737 -0.109986
0.0315026 0.20973 -0.110313
0.0319638 0.202194 -0.111012
0.0314621 0.201696 -0.110985
0.0314902 0.209689 -0.111312
0.0319513 0.202153 -0.112011
0.0314496 0.201655 -0.111984
0.0314777 0.209648 -0.112311
0.0314451 0.202134 -0.112504
0.0314407 0.202614 -0.113024
0.0319424 0.203111 -0.113051
0.0314618 0.208609 -0.113269
0.0314697 0.209129 -0.11279
0.0319635 0.209106 -0.113296
0.0319299 0.20307 -0.11405
0.0314282 0.202573 -0.114023
0.0314458 0.207569 -0.114228
0.0314538 0.208089 -0.113748
0.0314237 0.203052 -0.114543
0.0314273 0.204051 -0.114584
0.0314308 0.20505 -0.114625
0.0314343 0.206049 -0.114666
0.0314378 0.207049 -0.114707
0.0312509 0.167918 -0.117111
0.0312429 0.167398 -0.11759
0.0317446 0.167896 -0.117616
0.0317481 0.168895 -0.117657
0.0312544 0.168917 -0.117152
0.0317516 0.169894 -0.117698
0.0312579 0.169917 -0.117192
0.0317551 0.170893 -0.117739
0.0312614 0.170916 -0.117233
0.0317587 0.171892 -0.11778
0.0312649 0.171915 -0.117274
0.0317622 0.172892 -0.117821
0.0312684 0.172914 -0.117315
0.0317657 0.173891 -0.117861
0.031272 0.173913 -0.117356
0.0312675 0.174392 -0.117876
0.0312243 0.163881 -0.117946
0.0312164 0.163361 -0.118426
0.0317181 0.163858 -0.118452
0.0317216 0.164858 -0.118493
0.0312279 0.16488 -0.117987
0.0317251 0.165857 -0.118534
0.0312314 0.165879 -0.118028
0.0317286 0.166856 -0.118575
0.0312349 0.166878 -0.118069
0.0317321 0.167855 -0.118615
0.0317357 0.168854 -0.118656
0.0317392 0.169853 -0.118697
0.0317427 0.170853 -0.118738
0.0317532 0.17385 -0.11886
0.031263 0.174872 -0.118396
0.0317568 0.174849 -0.118901
0.0317603 0.175848 -0.118942
0.0312665 0.175871 -0.118436
0.0312621 0.17635 -0.118956
0.0312119 0.16384 -0.118946
0.0312074 0.164319 -0.119466
0.0317091 0.164817 -0.119492
0.0317127 0.165816 -0.119533
0.0317162 0.166815 -0.119574
0.0317197 0.167814 -0.119615
0.0317513 0.176807 -0.119982
0.0312576 0.176829 -0.119476
0.0317548 0.177806 -0.120023
0.0312611 0.177828 -0.119517
0.0317584 0.178805 -0.120064
0.0312646 0.178827 -0.119558
0.0312602 0.179307 -0.120078
0.031203 0.164798 -0.119985
0.0312065 0.165798 -0.120026
0.03121 0.166797 -0.120067
0.0312055 0.167276 -0.120587
0.0317072 0.167774 -0.120614
0.0317108 0.168773 -0.120654
0.0317143 0.169772 -0.120695
0.0317178 0.170771 -0.120736
0.0317213 0.17177 -0.120777
0.0317424 0.177765 -0.121022
0.0317459 0.178764 -0.121063
0.0312557 0.179786 -0.120598
0.0317494 0.179763 -0.121104
0.0312512 0.180265 -0.121118
0.031201 0.167755 -0.121107
0.0312046 0.168754 -0.121148
0.0312081 0.169753 -0.121189
0.0312116 0.170753 -0.12123
0.0312151 0.171752 -0.12127
0.0312186 0.172751 -0.121311
0.0312221 0.17375 -0.121352
0.0312257 0.174749 -0.121393
0.0312212 0.175228 -0.121913
0.0317229 0.175726 -0.121939
0.0317264 0.176725 -0.12198
0.0317299 0.177724 -0.122021
0.0317335 0.178723 -0.122062
0.0312432 0.179745 -0.121597
0.0312353 0.179225 -0.122076
0.0312167 0.175708 -0.122433
0.0312202 0.176707 -0.122474
0.0312238 0.177706 -0.122514
0.0312273 0.178705 -0.122555
0.0305495 0.175814 -0.0954042
0.0305415 0.175294 -0.0958833
0.0310433 0.175791 -0.0959099
0.0310468 0.17679 -0.0959507
0.030553 0.176813 -0.095445
0.0310503 0.17779 -0.0959916
0.0305566 0.177812 -0.0954859
0.0310538 0.178789 -0.0960324
0.0305601 0.178811 -0.0955267
0.0310573 0.179788 -0.0960732
0.0305636 0.17981 -0.0955675
0.0310608 0.180787 -0.096114
0.0305671 0.180809 -0.0956084
0.0305626 0.181289 -0.0961283
0.0310308 0.17575 -0.096909
0.0305291 0.175253 -0.0968824
0.0310343 0.17675 -0.0969498
0.0310378 0.177749 -0.0969907
0.0310413 0.178748 -0.0970315
0.0310449 0.179747 -0.0970723
0.0310484 0.180746 -0.0971131
0.0305582 0.181768 -0.0966483
0.0310519 0.181745 -0.097154
0.0310554 0.182745 -0.0971948
0.0305617 0.182767 -0.0966891
0.0305572 0.183246 -0.0972091
0.0305246 0.175732 -0.0974024
0.0305201 0.176211 -0.0979223
0.0310219 0.176709 -0.0979489
0.0310254 0.177708 -0.0979897
0.0310289 0.178707 -0.0980306
0.0310324 0.179706 -0.0980714
0.0310359 0.180705 -0.0981122
0.0310394 0.181705 -0.0981531
0.031043 0.182704 -0.0981939
0.0305448 0.183205 -0.0982082
0.0305157 0.17669 -0.0984423
0.0305112 0.17717 -0.0989623
0.0310129 0.177667 -0.0989888
0.0310164 0.178666 -0.0990297
0.03102 0.179665 -0.0990705
0.0310235 0.180665 -0.0991113
0.031027 0.181664 -0.0991521
0.0310305 0.182663 -0.099193
0.0305403 0.183685 -0.0987281
0.031034 0.183662 -0.0992338
0.0305358 0.184164 -0.0992481
0.0305067 0.177649 -0.0994822
0.0305103 0.178648 -0.0995231
0.0305138 0.179647 -0.0995639
0.0305173 0.180646 -0.0996047
0.0305208 0.181645 -0.0996455
0.0305243 0.182645 -0.0996864
0.0305278 0.183644 -0.0997272
0.0305324 0.202424 -0.105498
0.0305244 0.201904 -0.105978
0.0310261 0.202401 -0.106004
0.0305359 0.203423 -0.105539
0.0305394 0.204422 -0.10558
0.0305429 0.205421 -0.105621
0.0305464 0.206421 -0.105662
0.030542 0.2069 -0.106182
0.0310437 0.207397 -0.106208
0.0305164 0.201384 -0.106457
0.0305084 0.200864 -0.106936
0.0310101 0.201362 -0.106962
0.0305375 0.207379 -0.106702
0.030541 0.208378 -0.106742
0.0305366 0.208857 -0.107262
0.0309977 0.201321 -0.107961
0.030496 0.200823 -0.107935
0.0310258 0.209314 -0.108288
0.0305321 0.209336 -0.107782
0.0305276 0.209816 -0.108302
0.0309852 0.20128 -0.108961
0.0304835 0.200782 -0.108934
0.0305152 0.209775 -0.109301
0.0309728 0.201239 -0.10996
0.0304711 0.200742 -0.109933
0.0310044 0.210232 -0.110327
0.0305107 0.210254 -0.109821
0.0305062 0.210733 -0.110341
0.0309603 0.201198 -0.110959
0.0304586 0.200701 -0.110932
0.0304903 0.209693 -0.1113
0.0304982 0.210213 -0.11082
0.0309479 0.201158 -0.111958
0.0304462 0.20066 -0.111931
0.0304778 0.209653 -0.112299
0.0309354 0.201117 -0.112957
0.0304337 0.200619 -0.11293
0.0309389 0.202116 -0.112998
0.0304618 0.208613 -0.113257
0.0304698 0.209133 -0.112778
0.030923 0.201076 -0.113956
0.0304213 0.200578 -0.113929
0.0309265 0.202075 -0.113997
0.0304459 0.207573 -0.114215
0.0304539 0.208093 -0.113736
0.0304168 0.201058 -0.114449
0.0304203 0.202057 -0.11449
0.0304158 0.202536 -0.11501
0.0309176 0.203034 -0.115037
0.0309211 0.204033 -0.115078
0.0309246 0.205032 -0.115118
0.0304264 0.205534 -0.115133
0.0304344 0.206053 -0.114654
0.0304379 0.207053 -0.114694
0.0304114 0.203015 -0.11553
0.0304149 0.204014 -0.115571
0.0304184 0.205014 -0.115612
0.0302899 0.172 -0.115264
0.0302819 0.171481 -0.115743
0.0307836 0.171978 -0.115769
0.0307872 0.172977 -0.11581
0.0302934 0.173 -0.115304
0.0307907 0.173976 -0.115851
0.0302969 0.173999 -0.115345
0.0302925 0.174478 -0.115865
0.0302493 0.163966 -0.115936
0.0302413 0.163446 -0.116415
0.0307431 0.163944 -0.116442
0.0307466 0.164943 -0.116483
0.0302528 0.164966 -0.115977
0.0307501 0.165942 -0.116523
0.0302564 0.165965 -0.116018
0.0307536 0.166942 -0.116564
0.0302599 0.166964 -0.116058
0.0307571 0.167941 -0.116605
0.0302634 0.167963 -0.116099
0.0307606 0.16894 -0.116646
0.0302669 0.168962 -0.11614
0.0307642 0.169939 -0.116687
0.0302704 0.169961 -0.116181
0.0307677 0.170938 -0.116727
0.0302739 0.170961 -0.116222
0.0307712 0.171937 -0.116768
0.0307747 0.172936 -0.116809
0.0307782 0.173936 -0.11685
0.030288 0.174957 -0.116385
0.0307817 0.174935 -0.116891
0.0307853 0.175934 -0.116932
0.0302915 0.175956 -0.116426
0.0302871 0.176436 -0.116946
0.0302334 0.162926 -0.116894
0.0302254 0.162407 -0.117373
0.0307271 0.162904 -0.1174
0.0307306 0.163903 -0.117441
0.0307341 0.164902 -0.117482
0.0307376 0.165902 -0.117522
0.0307412 0.166901 -0.117563
0.0307693 0.174894 -0.11789
0.0307728 0.175893 -0.117931
0.0302826 0.176915 -0.117466
0.0307763 0.176892 -0.117972
0.0307798 0.177891 -0.118012
0.0302861 0.177914 -0.117507
0.0307834 0.178891 -0.118053
0.0302896 0.178913 -0.117548
0.0302852 0.179392 -0.118067
0.0307146 0.162863 -0.118399
0.0302129 0.162366 -0.118372
0.0307639 0.176852 -0.118971
0.0307674 0.177851 -0.119011
0.0307709 0.17885 -0.119052
0.0302807 0.179871 -0.118587
0.0307744 0.179849 -0.119093
0.0302762 0.180351 -0.119107
0.0302085 0.162845 -0.118892
0.030204 0.163324 -0.119412
0.0307057 0.163822 -0.119439
0.030762 0.179808 -0.120092
0.0302718 0.18083 -0.119627
0.0307655 0.180807 -0.120133
0.0302673 0.181309 -0.120147
0.0301995 0.163803 -0.119932
0.030203 0.164802 -0.119973
0.0302066 0.165802 -0.120014
0.0302021 0.166281 -0.120534
0.0307038 0.166778 -0.120561
0.030753 0.180767 -0.121132
0.0302628 0.181788 -0.120667
0.0307565 0.181766 -0.121173
0.0302583 0.182267 -0.121187
0.0301976 0.16676 -0.121054
0.0302011 0.167759 -0.121095
0.0302046 0.168758 -0.121136
0.0302082 0.169757 -0.121176
0.0302117 0.170757 -0.121217
0.0302072 0.171236 -0.121737
0.0307089 0.171733 -0.121764
0.0307124 0.172733 -0.121805
0.030716 0.173732 -0.121845
0.0307195 0.174731 -0.121886
0.0307371 0.179727 -0.12209
0.0307406 0.180726 -0.122131
0.0302504 0.181747 -0.121666
0.0302424 0.181227 -0.122145
0.0302027 0.171715 -0.122257
0.0302063 0.172714 -0.122298
0.0302098 0.173713 -0.122339
0.0302133 0.174712 -0.12238
0.0302168 0.175712 -0.12242
0.0302203 0.176711 -0.122461
0.0302238 0.17771 -0.122502
0.0302274 0.178709 -0.122543
0.0302309 0.179708 -0.122584
0.0302344 0.180707 -0.122625
0.0295445 0.170863 -0.0941887
0.0295365 0.170343 -0.0946678
0.0300382 0.17084 -0.0946944
0.0300417 0.171839 -0.0947352
0.029548 0.171862 -0.0942295
0.0300452 0.172839 -0.094776
0.0295515 0.172861 -0.0942703
0.0300488 0.173838 -0.0948169
0.029555 0.17386 -0.0943112
0.0300523 0.174837 -0.0948577
0.0295585 0.174859 -0.094352
0.0295541 0.175338 -0.0948719
0.029532 0.170822 -0.0951878
0.0295276 0.171301 -0.0957077
0.0300293 0.171799 -0.0957343
0.0300328 0.172798 -0.0957751
0.0300363 0.173797 -0.0958159
0.0300398 0.174796 -0.0958568
0.0295496 0.175818 -0.0953919
0.0295531 0.176817 -0.0954327
0.0295566 0.177816 -0.0954736
0.0295602 0.178815 -0.0955144
0.0295637 0.179814 -0.0955552
0.0295672 0.180813 -0.0955961
0.0300644 0.18179 -0.0961426
0.0295707 0.181813 -0.0956369
0.0295662 0.182292 -0.0961568
0.0295231 0.17178 -0.0962277
0.0295266 0.172779 -0.0962685
0.0295221 0.173259 -0.0967885
0.0300239 0.173756 -0.096815
0.0300274 0.174755 -0.0968559
0.0295618 0.182771 -0.0966768
0.030059 0.183748 -0.0972233
0.0295653 0.18377 -0.0967176
0.0300625 0.184747 -0.0972642
0.0295688 0.184769 -0.0967585
0.0295643 0.185248 -0.0972784
0.0295177 0.173738 -0.0973084
0.0295132 0.174217 -0.0978284
0.0300149 0.174715 -0.097855
0.0300184 0.175714 -0.0978958
0.0300466 0.183707 -0.0982224
0.0300501 0.184706 -0.0982632
0.0295599 0.185728 -0.0977984
0.0300536 0.185705 -0.0983041
0.0295554 0.186207 -0.0983183
0.0295087 0.174696 -0.0983484
0.0295043 0.175175 -0.0988683
0.030006 0.175673 -0.0988949
0.0300095 0.176672 -0.0989357
0.0300376 0.184665 -0.0992623
0.0300411 0.185664 -0.0993032
0.0295429 0.186166 -0.0993174
0.0294998 0.175655 -0.0993883
0.0295033 0.176654 -0.0994291
0.0294988 0.177133 -0.0999491
0.0300006 0.17763 -0.0999756
0.0300041 0.17863 -0.100016
0.0300076 0.179629 -0.100057
0.0300111 0.180628 -0.100098
0.0300146 0.181627 -0.100139
0.0300181 0.182626 -0.10018
0.0300217 0.183625 -0.100221
0.0300252 0.184625 -0.100261
0.029535 0.185646 -0.0997966
0.029527 0.185126 -0.100276
0.0294944 0.177612 -0.100469
0.0294979 0.178611 -0.10051
0.0295014 0.17961 -0.100551
0.0294969 0.18009 -0.101071
0.0299987 0.180587 -0.101097
0.0300022 0.181586 -0.101138
0.0300057 0.182585 -0.101179
0.0295155 0.183607 -0.100714
0.0295075 0.183087 -0.101193
0.029519 0.184606 -0.100755
0.0294925 0.180569 -0.101591
0.029496 0.181568 -0.101631
0.0294995 0.182567 -0.101672
0.0295325 0.202428 -0.105486
0.0295245 0.201908 -0.105965
0.029536 0.203427 -0.105527