<VTKFile type="UnstructuredGrid" version="0.1" byte_order="BigEndian">
  <UnstructuredGrid>
    <Piece NumberOfPoints="13082" NumberOfCells="26164">
      <PointData>
        <DataArray type="Float64" Name="position" NumberOfComponents="3" format="ascii">
0.0665665 -0.168709 -1.01206
0.0665854 -0.16925 -1.01252
0.067568 -0.168718 -1.01256
0.0675341 -0.167722 -1.01264
0.0665326 -0.167714 -1.01215
0.0675002 -0.166727 -1.01273
0.0664987 -0.166718 -1.01223
0.0664837 -0.166263 -1.01277
0.0665704 -0.168795 -1.01306
0.0665365 -0.167799 -1.01314
0.0665026 -0.166804 -1.01323
0.0645144 -0.167353 -1.00717
0.0645333 -0.167894 -1.00762
0.0655159 -0.167362 -1.00766
0.0644994 -0.166898 -1.00771
0.0645521 -0.168435 -1.00808
0.064571 -0.168975 -1.00853
0.0655536 -0.168443 -1.00857
0.0655197 -0.167448 -1.00866
0.0644843 -0.166443 -1.00825
0.0654858 -0.166452 -1.00875
0.0644693 -0.165988 -1.00879
0.0655574 -0.168529 -1.00957
0.0645748 -0.169061 -1.00953
0.0655235 -0.167533 -1.00966
0.0654896 -0.166538 -1.00974
0.0644731 -0.166074 -1.00979
0.0655613 -0.168615 -1.01057
0.0645786 -0.169147 -1.01052
0.0655274 -0.167619 -1.01065
0.0654935 -0.166623 -1.01074
0.0644769 -0.16616 -1.01078
0.0655651 -0.168701 -1.01156
0.0645825 -0.169232 -1.01152
0.0655312 -0.167705 -1.01165
0.0654973 -0.166709 -1.01173
0.0644808 -0.166245 -1.01178
0.0645863 -0.169318 -1.01252
0.0644846 -0.166331 -1.01277
0.0645712 -0.168863 -1.01306
0.0645562 -0.168408 -1.0136
0.0655388 -0.167876 -1.01364
0.0645223 -0.167412 -1.01369
0.0645034 -0.166872 -1.01323
0.0645412 -0.167953 -1.01414
0.0625038 -0.167164 -1.00418
0.0625227 -0.167705 -1.00463
0.0635053 -0.167173 -1.00468
0.0624888 -0.166709 -1.00472
0.0635091 -0.167259 -1.00567
0.0625265 -0.167791 -1.00563
0.0624926 -0.166795 -1.00572
0.0625454 -0.168331 -1.00609
0.0625642 -0.168872 -1.00654
0.0635468 -0.16834 -1.00658
0.0635129 -0.167344 -1.00667
0.0624776 -0.16634 -1.00626
0.063479 -0.166349 -1.00676
0.0624625 -0.165885 -1.0068
0.0635507 -0.168426 -1.00758
0.062568 -0.168958 -1.00754
0.0634829 -0.166434 -1.00775
0.0624663 -0.165971 -1.0078
0.0625719 -0.169044 -1.00853
0.0624702 -0.166056 -1.00879
0.0625757 -0.169129 -1.00953
0.062474 -0.166142 -1.00979
0.0625795 -0.169215 -1.01053
0.0624778 -0.166228 -1.01078
0.0625833 -0.169301 -1.01152
0.0624816 -0.166313 -1.01178
0.0625871 -0.169386 -1.01252
0.0624854 -0.166399 -1.01278
0.0625721 -0.168931 -1.01306
0.0625571 -0.168476 -1.0136
0.0625232 -0.167481 -1.01369
0.0625043 -0.16694 -1.01323
0.062542 -0.168021 -1.01414
0.0605047 -0.167232 -1.00418
0.0605236 -0.167773 -1.00464
0.0614723 -0.166245 -1.00476
0.0604708 -0.166237 -1.00427
0.0604558 -0.165782 -1.00481
0.0605424 -0.168314 -1.00509
0.0605613 -0.168855 -1.00555
0.0615439 -0.168323 -1.00559
0.0614761 -0.166331 -1.00576
0.0604596 -0.165867 -1.0058
0.0605651 -0.16894 -1.00654
0.0604634 -0.165953 -1.0068
0.0605689 -0.169026 -1.00754
0.0604672 -0.166039 -1.0078
0.0605727 -0.169112 -1.00854
0.0614536 -0.165593 -1.00884
0.0604522 -0.165584 -1.00834
0.0604371 -0.165129 -1.00888
0.0605766 -0.169197 -1.00953
0.0614575 -0.165678 -1.00983
0.060441 -0.165215 -1.00988
0.0605804 -0.169283 -1.01053
0.0614613 -0.165764 -1.01083
0.0604448 -0.1653 -1.01087
0.0605842 -0.169369 -1.01152
0.0614651 -0.16585 -1.01182
0.0604486 -0.165386 -1.01187
0.0606031 -0.16991 -1.01198
0.0606219 -0.17045 -1.01244
0.0616045 -0.169918 -1.01248
0.0614689 -0.165935 -1.01282
0.0604524 -0.165472 -1.01286
0.0606069 -0.169995 -1.01298
0.0605918 -0.16954 -1.01352
0.0615744 -0.169008 -1.01356
0.0615066 -0.167017 -1.01373
0.0604901 -0.166553 -1.01377
0.0604713 -0.166012 -1.01332
0.0605768 -0.169085 -1.01406
0.0605429 -0.16809 -1.01414
0.060509 -0.167094 -1.01423
0.0585395 -0.168296 -1.0041
0.0585583 -0.168837 -1.00455
0.0595409 -0.168305 -1.00459
0.0585056 -0.167301 -1.00418
0.0584905 -0.166846 -1.00472
0.0594731 -0.166314 -1.00477
0.0585621 -0.168923 -1.00555
0.0584755 -0.166391 -1.00527
0.0584604 -0.165936 -1.00581
0.058581 -0.169464 -1.006
0.0585999 -0.170004 -1.00646
0.0595825 -0.169472 -1.0065
0.0594469 -0.165489 -1.00684
0.0584454 -0.165481 -1.00635
0.0584304 -0.165026 -1.00689
0.0595863 -0.169558 -1.0075
0.0586037 -0.17009 -1.00746
0.0594507 -0.165575 -1.00784
0.0584342 -0.165111 -1.00788
0.0595901 -0.169644 -1.00849
0.0586075 -0.170176 -1.00845
0.058438 -0.165197 -1.00888
0.0595939 -0.169729 -1.00949
0.0586113 -0.170261 -1.00945
0.0584418 -0.165283 -1.00988
0.0595978 -0.169815 -1.01049
0.0586151 -0.170347 -1.01044
0.0584456 -0.165368 -1.01087
0.0596016 -0.169901 -1.01148
0.058619 -0.170433 -1.01144
0.0584495 -0.165454 -1.01187
0.0596054 -0.169987 -1.01248
0.0586039 -0.169978 -1.01198
0.0585889 -0.169523 -1.01252
0.0584533 -0.16554 -1.01287
0.0585927 -0.169609 -1.01352
0.058491 -0.166621 -1.01378
0.0584721 -0.166081 -1.01332
0.0585777 -0.169154 -1.01406
0.0585438 -0.168158 -1.01415
0.0585099 -0.167162 -1.01423
0.0565742 -0.16936 -1.00401
0.0565931 -0.169901 -1.00447
0.0575757 -0.169369 -1.00451
0.0565403 -0.168365 -1.0041
0.0565064 -0.167369 -1.00418
0.0564914 -0.166914 -1.00473
0.0575795 -0.169455 -1.00551
0.0565969 -0.169987 -1.00546
0.0564764 -0.166459 -1.00527
0.0564613 -0.166004 -1.00581
0.0566007 -0.170072 -1.00646
0.0574477 -0.165558 -1.00685
0.0564651 -0.16609 -1.0068
0.0566196 -0.170613 -1.00692
0.0566385 -0.171154 -1.00737
0.0576211 -0.170622 -1.00741
0.0564501 -0.165635 -1.00735
0.0564351 -0.16518 -1.00789
0.0576249 -0.170708 -1.00841
0.0566423 -0.17124 -1.00837
0.0564389 -0.165265 -1.00888
0.0576287 -0.170793 -1.00941
0.0566461 -0.171325 -1.00936
0.0564427 -0.165351 -1.00988
0.0576325 -0.170879 -1.0104
0.0566499 -0.171411 -1.01036
0.0564804 -0.166432 -1.01079
0.0564615 -0.165892 -1.01033
0.057463 -0.1659 -1.01083
0.0576363 -0.170965 -1.0114
0.0566537 -0.171497 -1.01136
0.0574668 -0.165986 -1.01183
0.0564842 -0.166518 -1.01179
0.0576402 -0.171051 -1.0124
0.0566575 -0.171583 -1.01235
0.0576063 -0.170055 -1.01248
0.0574707 -0.166072 -1.01282
0.056488 -0.166604 -1.01278
0.0566425 -0.171128 -1.01289
0.0566275 -0.170673 -1.01344
0.0576101 -0.170141 -1.01348
0.0565258 -0.167685 -1.01369
0.0565069 -0.167145 -1.01324
0.0575084 -0.167153 -1.01373
0.0566124 -0.170218 -1.01398
0.0565974 -0.169763 -1.01452
0.05758 -0.169231 -1.01456
0.0565635 -0.168767 -1.0146
0.0565446 -0.168226 -1.01415
0.0565823 -0.169307 -1.01506
0.0545751 -0.169429 -1.00401
0.054594 -0.169969 -1.00447
0.0545412 -0.168433 -1.0041
0.0545262 -0.167978 -1.00464
0.0555088 -0.167446 -1.00468
0.0546128 -0.17051 -1.00493
0.0546317 -0.171051 -1.00538
0.0556143 -0.170519 -1.00542
0.0545111 -0.167523 -1.00518
0.0544961 -0.167068 -1.00572
0.0554787 -0.166536 -1.00577
0.0556181 -0.170604 -1.00642
0.0546355 -0.171136 -1.00638
0.054481 -0.166613 -1.00626
0.054466 -0.166158 -1.00681
0.0546393 -0.171222 -1.00737
0.054451 -0.165703 -1.00735
0.0544359 -0.165248 -1.00789
0.0546431 -0.171308 -1.00837
0.0544397 -0.165333 -1.00888
0.054647 -0.171394 -1.00937
0.0544775 -0.166415 -1.00979
0.0544586 -0.165874 -1.00934
0.0554601 -0.165883 -1.00984
0.0546508 -0.171479 -1.01036
0.0544813 -0.166501 -1.01079
0.0546546 -0.171565 -1.01136
0.0544851 -0.166586 -1.01179
0.0546584 -0.171651 -1.01235
0.0544889 -0.166672 -1.01278
0.0546434 -0.171196 -1.0129
0.0546283 -0.170741 -1.01344
0.0545266 -0.167754 -1.01369
0.0545078 -0.167213 -1.01324
0.0556148 -0.170294 -1.01448
0.0546322 -0.170826 -1.01443
0.0545644 -0.168835 -1.0146
0.0545455 -0.168294 -1.01415
0.0546171 -0.170371 -1.01497
0.0545832 -0.169376 -1.01506
0.0525722 -0.169411 -1.00302
0.052591 -0.169952 -1.00348
0.0535736 -0.16942 -1.00352
0.0525571 -0.168956 -1.00356
0.0526099 -0.170492 -1.00393
0.0526287 -0.171033 -1.00439
0.0536113 -0.170501 -1.00443
0.0525421 -0.168501 -1.0041
0.052527 -0.168046 -1.00464
0.0526325 -0.171119 -1.00538
0.052512 -0.167591 -1.00518
0.0524969 -0.167136 -1.00573
0.0526514 -0.17166 -1.00584
0.0526703 -0.1722 -1.00629
0.0536529 -0.171668 -1.00633
0.0524819 -0.166681 -1.00627
0.0524669 -0.166226 -1.00681
0.0536567 -0.171754 -1.00733
0.0526741 -0.172286 -1.00729
0.0534533 -0.16578 -1.00785
0.0524707 -0.166312 -1.0078
0.0536605 -0.17184 -1.00833
0.0526779 -0.172372 -1.00829
0.0524556 -0.165857 -1.00835
0.0524406 -0.165402 -1.00889
0.0536643 -0.171926 -1.00932
0.0526817 -0.172458 -1.00928
0.0534609 -0.165951 -1.00984
0.0524444 -0.165487 -1.00988
0.0536682 -0.172011 -1.01032
0.0526855 -0.172543 -1.01028
0.0524821 -0.166569 -1.01079
0.0524633 -0.166028 -1.01034
0.053672 -0.172097 -1.01132
0.0526894 -0.172629 -1.01127
0.052486 -0.166655 -1.01179
0.0526743 -0.172174 -1.01182
0.0526593 -0.171719 -1.01236
0.0524898 -0.16674 -1.01279
0.0536457 -0.171273 -1.01339
0.0526631 -0.171805 -1.01335
0.0525275 -0.167822 -1.0137
0.0525086 -0.167281 -1.01324
0.0526481 -0.17135 -1.01389
0.052633 -0.170895 -1.01444
0.0535478 -0.168371 -1.01465
0.0525313 -0.167907 -1.01469
0.052618 -0.17044 -1.01498
0.0525841 -0.169444 -1.01506
0.0525502 -0.168448 -1.01515
0.050573 -0.169479 -1.00302
0.0505919 -0.17002 -1.00348
0.050558 -0.169024 -1.00356
0.0506107 -0.170561 -1.00393
0.0506296 -0.171101 -1.00439
0.0505429 -0.168569 -1.0041
0.0505279 -0.168114 -1.00465
0.0506485 -0.171642 -1.00484
0.0506673 -0.172183 -1.0053
0.0516499 -0.171651 -1.00534
0.0505129 -0.167659 -1.00519
0.0504978 -0.167204 -1.00573
0.0506711 -0.172269 -1.00629
0.0504828 -0.166749 -1.00627
0.0504677 -0.166294 -1.00681
0.050675 -0.172354 -1.00729
0.0504716 -0.16638 -1.00781
0.0506788 -0.17244 -1.00829
0.0504565 -0.165925 -1.00835
0.0504415 -0.16547 -1.00889
0.0506826 -0.172526 -1.00928
0.0504453 -0.165556 -1.00988
0.0506864 -0.172611 -1.01028
0.0514656 -0.166105 -1.01084
0.0504491 -0.165641 -1.01088
0.0506902 -0.172697 -1.01128
0.0504868 -0.166723 -1.01179
0.050468 -0.166182 -1.01134
0.0516767 -0.172251 -1.01231
0.0506941 -0.172783 -1.01227
0.0504907 -0.166809 -1.01279
0.0516805 -0.172337 -1.01331
0.0506979 -0.172869 -1.01327
0.051511 -0.167358 -1.01374
0.0504945 -0.166894 -1.01378
0.0506828 -0.172414 -1.01381
0.0506678 -0.171959 -1.01435
0.0516504 -0.171427 -1.01439
0.0505322 -0.167976 -1.01469
0.0505133 -0.167435 -1.01424
0.0506528 -0.171504 -1.01489
0.0506377 -0.171049 -1.01543
0.0516203 -0.170517 -1.01548
0.0515864 -0.169521 -1.01556
0.0505699 -0.169057 -1.0156
0.050551 -0.168516 -1.01515
0.0506227 -0.170594 -1.01597
0.0505888 -0.169598 -1.01606
0.0485739 -0.169547 -1.00302
0.0485927 -0.170088 -1.00348
0.0485588 -0.169092 -1.00357
0.0486116 -0.170629 -1.00393
0.0486305 -0.17117 -1.00439
0.0485438 -0.168637 -1.00411
0.0485288 -0.168182 -1.00465
0.0486493 -0.17171 -1.00484
0.0486682 -0.172251 -1.0053
0.0485137 -0.167727 -1.00519
0.0484987 -0.167272 -1.00573
0.048672 -0.172337 -1.0063
0.0484836 -0.166817 -1.00627
0.0484686 -0.166362 -1.00681
0.0486758 -0.172423 -1.00729
0.0484724 -0.166448 -1.00781
0.0486947 -0.172963 -1.00775
0.0487135 -0.173504 -1.0082
0.0496962 -0.172972 -1.00825
0.0484574 -0.165993 -1.00835
0.0484423 -0.165538 -1.00889
0.0497 -0.173058 -1.00924
0.0487174 -0.17359 -1.0092
0.0484462 -0.165624 -1.00989
0.0497038 -0.173143 -1.01024
0.0487212 -0.173675 -1.0102
0.04845 -0.16571 -1.01088
0.0497076 -0.173229 -1.01123
0.048725 -0.173761 -1.01119
0.0494703 -0.166259 -1.01183
0.0484538 -0.165795 -1.01188
0.0497114 -0.173315 -1.01223
0.0487288 -0.173847 -1.01219
0.0494741 -0.166345 -1.01283
0.0484576 -0.165881 -1.01288
0.0487138 -0.173392 -1.01273
0.0486987 -0.172937 -1.01327
0.049478 -0.16643 -1.01383
0.0484614 -0.165967 -1.01387
0.0496852 -0.172491 -1.01431
0.0487026 -0.173023 -1.01427
0.0495157 -0.167512 -1.01474
0.0484992 -0.167048 -1.01478
0.0484803 -0.166507 -1.01433
0.0486875 -0.172568 -1.01481
0.0486725 -0.172113 -1.01535
0.0496551 -0.171581 -1.01539
0.0495534 -0.168593 -1.01565
0.0485369 -0.16813 -1.01569
0.048518 -0.167589 -1.01524
0.0486574 -0.171658 -1.01589
0.0486235 -0.170662 -1.01598
0.0485896 -0.169666 -1.01606
0.0485557 -0.16867 -1.01615
0.0475762 -0.169624 -1.00352
0.0466125 -0.170697 -1.00394
0.0466313 -0.171238 -1.00439
0.0465786 -0.169701 -1.00402
0.0465447 -0.168706 -1.00411
0.0465296 -0.168251 -1.00465
0.0466502 -0.171779 -1.00485
0.0466691 -0.172319 -1.0053
0.0465146 -0.167796 -1.00519
0.0464996 -0.167341 -1.00573
0.0466729 -0.172405 -1.0063
0.0464845 -0.166886 -1.00627
0.0464695 -0.166431 -1.00681
0.0466917 -0.172946 -1.00675
0.0467106 -0.173486 -1.00721
0.0476932 -0.172955 -1.00725
0.0474559 -0.165984 -1.00785
0.0464544 -0.165976 -1.00735
0.0464394 -0.165521 -1.0079
0.0467144 -0.173572 -1.00821
0.0464432 -0.165606 -1.00889
0.0467182 -0.173658 -1.0092
0.0474296 -0.16516 -1.00993
0.0464282 -0.165151 -1.00943
0.0464131 -0.164696 -1.00997
0.046722 -0.173744 -1.0102
0.0474335 -0.165246 -1.01093
0.0464169 -0.164782 -1.01097
0.0467259 -0.173829 -1.01119
0.0474373 -0.165332 -1.01192
0.0464208 -0.164868 -1.01197
0.0467297 -0.173915 -1.01219
0.0474411 -0.165417 -1.01292
0.0464246 -0.164953 -1.01296
0.0477161 -0.173469 -1.01323
0.0467335 -0.174001 -1.01319
0.0474449 -0.165503 -1.01392
0.0464284 -0.165039 -1.01396
0.0477199 -0.173555 -1.01423
0.0467373 -0.174087 -1.01418
0.0474826 -0.166584 -1.01483
0.0464661 -0.166121 -1.01487
0.0464473 -0.16558 -1.01441
0.0467223 -0.173632 -1.01472
0.0467072 -0.173177 -1.01527
0.0476899 -0.172645 -1.01531
0.0475204 -0.167666 -1.01574
0.0465038 -0.167202 -1.01578
0.046485 -0.166661 -1.01532
0.0466922 -0.172722 -1.01581
0.0466772 -0.172266 -1.01635
0.0476598 -0.171735 -1.01639
0.0476259 -0.170739 -1.01648
0.047592 -0.169743 -1.01656
0.0465755 -0.169279 -1.0166
0.0465566 -0.168739 -1.01615
0.0465227 -0.167743 -1.01624
0.0466621 -0.171811 -1.01689
0.0466282 -0.170816 -1.01697
0.0465943 -0.16982 -1.01706
0.0446133 -0.170765 -1.00394
0.0446322 -0.171306 -1.00439
0.0445794 -0.16977 -1.00402
0.0445455 -0.168774 -1.00411
0.0445305 -0.168319 -1.00465
0.0446511 -0.171847 -1.00485
0.0446699 -0.172388 -1.0053
0.0445155 -0.167864 -1.00519
0.045483 -0.166877 -1.00577
0.0444816 -0.166868 -1.00528
0.0444665 -0.166413 -1.00582
0.0446888 -0.172928 -1.00576
0.0447076 -0.173469 -1.00621
0.0456903 -0.172937 -1.00626
0.045453 -0.165967 -1.00686
0.0444515 -0.165958 -1.00636
0.0444364 -0.165503 -1.0069
0.0447115 -0.173555 -1.00721
0.0444403 -0.165589 -1.0079
0.0447303 -0.174095 -1.00767
0.0447492 -0.174636 -1.00812
0.0457318 -0.174104 -1.00816
0.0454267 -0.165143 -1.00894
0.0444252 -0.165134 -1.00844
0.0444102 -0.164679 -1.00898
0.0457356 -0.17419 -1.00916
0.044753 -0.174722 -1.00912
0.044414 -0.164765 -1.00998
0.0457394 -0.174276 -1.01016
0.0447568 -0.174808 -1.01011
0.0444178 -0.16485 -1.01097
0.0457433 -0.174361 -1.01115
0.0447606 -0.174893 -1.01111
0.0454043 -0.164404 -1.01201
0.0444028 -0.164395 -1.01151
0.0443877 -0.16394 -1.01205
0.0457471 -0.174447 -1.01215
0.0447645 -0.174979 -1.01211
0.0454081 -0.16449 -1.01301
0.0443916 -0.164026 -1.01305
0.0457509 -0.174533 -1.01314
0.0447683 -0.175065 -1.0131
0.0454119 -0.164575 -1.014
0.0443954 -0.164112 -1.01405
0.0457547 -0.174619 -1.01414
0.0447721 -0.17515 -1.0141
0.0454496 -0.165657 -1.01491
0.0454157 -0.164661 -1.015
0.0443992 -0.164197 -1.01504
0.0447571 -0.174695 -1.01464
0.044742 -0.17424 -1.01518
0.0457246 -0.173708 -1.01522
0.0454873 -0.166738 -1.01582
0.0444708 -0.166275 -1.01587
0.044452 -0.165734 -1.01541
0.0444181 -0.164738 -1.0155
0.044727 -0.173785 -1.01572
0.0447119 -0.17333 -1.01626
0.0456945 -0.172798 -1.01631
0.0455589 -0.168816 -1.01665
0.0445424 -0.168352 -1.01669
0.0445236 -0.167811 -1.01624
0.0444897 -0.166815 -1.01632
0.0446969 -0.172875 -1.0168
0.044663 -0.17188 -1.01689
0.0446291 -0.170884 -1.01698
0.0445952 -0.169888 -1.01706
0.0445613 -0.168893 -1.01715
0.0433562 -0.192654 -1.00106
0.0433751 -0.193195 -1.00151
0.0443577 -0.192663 -1.00155
0.0443238 -0.191667 -1.00164
0.0433223 -0.191658 -1.00114
0.0442899 -0.190671 -1.00172
0.0432884 -0.190663 -1.00123
0.044256 -0.189676 -1.00181
0.0432545 -0.189667 -1.00131
0.0442221 -0.18868 -1.0019
0.0432206 -0.188671 -1.0014
0.0432056 -0.188216 -1.00194
0.04336 -0.19274 -1.00205
0.043345 -0.192285 -1.00259
0.0443276 -0.191753 -1.00264
0.0442937 -0.190757 -1.00272
0.0442598 -0.189761 -1.00281
0.0442259 -0.188766 -1.00289
0.0432094 -0.188302 -1.00294
0.0426142 -0.170834 -1.00394
0.0426331 -0.171374 -1.0044
0.0425803 -0.169838 -1.00403
0.0425464 -0.168842 -1.00411
0.043514 -0.167855 -1.00469
0.0425125 -0.167846 -1.0042
0.0424975 -0.167391 -1.00474
0.0433299 -0.19183 -1.00313
0.043296 -0.190834 -1.00322
0.0432621 -0.189838 -1.00331
0.0432282 -0.188843 -1.00339
0.0426858 -0.172911 -1.00476
0.0427047 -0.173451 -1.00522
0.0436873 -0.172919 -1.00526
0.0426519 -0.171915 -1.00485
0.0424824 -0.166936 -1.00528
0.04345 -0.165949 -1.00586
0.0424485 -0.165941 -1.00537
0.0424335 -0.165486 -1.00591
0.0427085 -0.173537 -1.00622
0.0434199 -0.165039 -1.00694
0.0424184 -0.165031 -1.00645
0.0424034 -0.164576 -1.00699
0.0427274 -0.174078 -1.00667
0.0427462 -0.174619 -1.00713
0.0437288 -0.174087 -1.00717
0.0434237 -0.165125 -1.00794
0.0423884 -0.164121 -1.00753
0.0433898 -0.164129 -1.00803
0.0423733 -0.163666 -1.00807
0.04275 -0.174704 -1.00812
0.0433937 -0.164215 -1.00902
0.0423771 -0.163751 -1.00907
0.0427689 -0.175245 -1.00858
0.0427878 -0.175786 -1.00903
0.0437704 -0.175254 -1.00908
0.0433975 -0.164301 -1.01002
0.0423621 -0.163296 -1.00961
0.0433636 -0.163305 -1.01011
0.0423471 -0.162841 -1.01015
0.0437742 -0.17534 -1.01007
0.0427916 -0.175872 -1.01003
0.0434013 -0.164386 -1.01102
0.0433674 -0.163391 -1.0111
0.0423509 -0.162927 -1.01115
0.043778 -0.175425 -1.01107
0.0427954 -0.175957 -1.01103
0.0433712 -0.163476 -1.0121
0.0423547 -0.163013 -1.01214
0.0437818 -0.175511 -1.01206
0.0427992 -0.176043 -1.01202
0.0423924 -0.164094 -1.01305
0.0423736 -0.163553 -1.0126
0.0437857 -0.175597 -1.01306
0.042803 -0.176129 -1.01302
0.0423962 -0.16418 -1.01405
0.0437895 -0.175682 -1.01406
0.0428069 -0.176214 -1.01402
0.042434 -0.165261 -1.01496
0.0424151 -0.164721 -1.0145
0.0434166 -0.164729 -1.015
0.0437933 -0.175768 -1.01505
0.0428107 -0.1763 -1.01501
0.0437594 -0.174772 -1.01514
0.0425056 -0.167339 -1.01578
0.0424867 -0.166798 -1.01533
0.0434882 -0.166807 -1.01583
0.0424528 -0.165802 -1.01541
0.0427956 -0.175845 -1.01555
0.0427806 -0.17539 -1.01609
0.0437632 -0.174858 -1.01614
0.0437293 -0.173862 -1.01622
0.0425433 -0.16842 -1.01669
0.0425244 -0.167879 -1.01624
0.0427656 -0.174935 -1.01663
0.0427317 -0.173939 -1.01672
0.0427166 -0.173484 -1.01726
0.0436992 -0.172952 -1.0173
0.0436653 -0.171957 -1.01739
0.0436314 -0.170961 -1.01747
0.0426149 -0.170497 -1.01752
0.0425961 -0.169956 -1.01706
0.0425622 -0.168961 -1.01715
0.0427016 -0.173029 -1.0178
0.0426677 -0.172034 -1.01789
0.0426338 -0.171038 -1.01797
0.0436059 -0.199433 -1.02155
0.0436248 -0.199974 -1.022
0.0446074 -0.199442 -1.02205
0.0445735 -0.198446 -1.02213
0.043572 -0.198437 -1.02164
0.0445396 -0.19745 -1.02222
0.0435381 -0.197441 -1.02172
0.0445057 -0.196454 -1.0223
0.0435042 -0.196446 -1.02181
0.0444718 -0.195459 -1.02239
0.0434703 -0.19545 -1.02189
0.0444379 -0.194463 -1.02248
0.0434364 -0.194454 -1.02198
0.044404 -0.193467 -1.02256
0.0434025 -0.193458 -1.02206
0.0443701 -0.192471 -1.02265
0.0433686 -0.192463 -1.02215
0.0443362 -0.191476 -1.02273
0.0433347 -0.191467 -1.02224
0.0433197 -0.191012 -1.02278
0.0431991 -0.187484 -1.02258
0.043218 -0.188025 -1.02303
0.0442006 -0.187493 -1.02308
0.0431841 -0.187029 -1.02312
0.0436775 -0.20151 -1.02237
0.0436964 -0.202051 -1.02283
0.044679 -0.201519 -1.02287
0.0446451 -0.200523 -1.02296
0.0436436 -0.200514 -1.02246
0.0446112 -0.199527 -1.02304
0.0445773 -0.198532 -1.02313
0.0445434 -0.197536 -1.02321
0.0445095 -0.19654 -1.0233
0.0444756 -0.195544 -1.02339
0.0444417 -0.194549 -1.02347
0.0444078 -0.193553 -1.02356
0.0443739 -0.192557 -1.02364
0.04434 -0.191561 -1.02373
0.0433046 -0.190557 -1.02332
0.0443061 -0.190566 -1.02382
0.0442722 -0.18957 -1.0239
0.0432707 -0.189561 -1.0234
0.0442383 -0.188574 -1.02399
0.0432368 -0.188565 -1.02349
0.0442044 -0.187578 -1.02407
0.043169 -0.186574 -1.02366
0.0441705 -0.186583 -1.02416
0.043154 -0.186119 -1.0242
0.0446828 -0.201604 -1.02387
0.0437002 -0.202136 -1.02383
0.0446489 -0.200609 -1.02395
0.044615 -0.199613 -1.02404
0.0445811 -0.198617 -1.02413
0.0445472 -0.197622 -1.02421
0.0445133 -0.196626 -1.0243
0.0444794 -0.19563 -1.02438
0.0444455 -0.194634 -1.02447
0.0444116 -0.193639 -1.02455
0.0443777 -0.192643 -1.02464
0.0443438 -0.191647 -1.02473
0.0443099 -0.190651 -1.02481
0.044276 -0.189656 -1.0249
0.0442421 -0.18866 -1.02498
0.0442082 -0.187664 -1.02507
0.0441743 -0.186668 -1.02515
0.0431578 -0.186205 -1.0252
0.0436852 -0.201681 -1.02437
0.0436701 -0.201226 -1.02491
0.0446527 -0.200694 -1.02495
0.0446188 -0.199699 -1.02504
0.0445849 -0.198703 -1.02512
0.044551 -0.197707 -1.02521
0.0445171 -0.196712 -1.02529
0.0444832 -0.195716 -1.02538
0.0444493 -0.19472 -1.02546
0.0444154 -0.193724 -1.02555
0.0443815 -0.192729 -1.02564
0.0443476 -0.191733 -1.02572
0.0443137 -0.190737 -1.02581
0.0442798 -0.189741 -1.02589
0.0442459 -0.188746 -1.02598
0.044212 -0.18775 -1.02607
0.0441781 -0.186754 -1.02615
0.0431616 -0.18629 -1.02619
0.0436551 -0.200771 -1.02545
0.0436212 -0.199776 -1.02553
0.0435873 -0.19878 -1.02562
0.0435534 -0.197784 -1.02571
0.0435195 -0.196789 -1.02579
0.0435044 -0.196334 -1.02633
0.044487 -0.195802 -1.02638
0.0444531 -0.194806 -1.02646
0.0444192 -0.19381 -1.02655
0.0443853 -0.192814 -1.02663
0.0443514 -0.191819 -1.02672
0.0443175 -0.190823 -1.0268
0.0442836 -0.189827 -1.02689
0.0442497 -0.188831 -1.02698
0.0432144 -0.187827 -1.02656
0.0432332 -0.188368 -1.02702
0.0431805 -0.186831 -1.02665
0.0434894 -0.195878 -1.02687
0.0434555 -0.194883 -1.02696
0.0434216 -0.193887 -1.02705
0.0433877 -0.192891 -1.02713
0.0433538 -0.191896 -1.02722
0.0433199 -0.1909 -1.0273
0.043286 -0.189904 -1.02739
0.0432521 -0.188908 -1.02747
0.0413155 -0.191555 -0.999151
0.0413344 -0.192096 -0.999606
0.042317 -0.191564 -0.999648
0.0422831 -0.190568 -0.999734
0.0412816 -0.190559 -0.999237
0.0412666 -0.190104 -0.999778
0.040129 -0.156704 -1.00215
0.0401479 -0.157245 -1.00261
0.0411305 -0.156713 -1.00265
0.0410966 -0.155717 -1.00274
0.0400951 -0.155709 -1.00224
0.0410627 -0.154722 -1.00282
0.0400612 -0.154713 -1.00233
0.0400462 -0.154258 -1.00287
0.0415227 -0.197615 -0.999632
0.0415416 -0.198156 -1.00009
0.0425242 -0.197624 -1.00013
0.0424903 -0.196628 -1.00022
0.0414888 -0.196619 -0.999718
0.0424564 -0.195632 -1.0003
0.0414549 -0.195624 -0.999804
0.0424225 -0.194637 -1.00039
0.041421 -0.194628 -0.99989
0.0423886 -0.193641 -1.00047
0.0413871 -0.193632 -0.999976
0.0423547 -0.192645 -1.00056
0.0413532 -0.192636 -1.00006
0.0423208 -0.19165 -1.00064
0.0422869 -0.190654 -1.00073
0.0412515 -0.189649 -1.00032
0.042253 -0.189658 -1.00082
0.0422191 -0.188662 -1.0009
0.0412176 -0.188654 -1.0004
0.0421852 -0.187667 -1.00099
0.0411837 -0.187658 -1.00049
0.0421513 -0.186671 -1.00107
0.0411498 -0.186662 -1.00058
0.0421174 -0.185675 -1.00116
0.0411159 -0.185666 -1.00066
0.0411009 -0.185211 -1.0012
0.0401667 -0.157786 -1.00306
0.0401856 -0.158326 -1.00352
0.0411682 -0.157795 -1.00356
0.0411343 -0.156799 -1.00365
0.0411004 -0.155803 -1.00373
0.0410665 -0.154807 -1.00382
0.0400311 -0.153803 -1.00341
0.0410326 -0.153812 -1.0039
0.0400161 -0.153348 -1.00395
0.042528 -0.19771 -1.00113
0.0415454 -0.198242 -1.00108
0.0424941 -0.196714 -1.00121
0.0424602 -0.195718 -1.0013
0.0424263 -0.194722 -1.00138
0.0423924 -0.193727 -1.00147
0.042189 -0.187752 -1.00198
0.0421551 -0.186757 -1.00207
0.0421212 -0.185761 -1.00216
0.0410859 -0.184756 -1.00174
0.0420873 -0.184765 -1.00224
0.0420534 -0.183769 -1.00233
0.041052 -0.183761 -1.00183
0.0410369 -0.183306 -1.00237
0.0405774 -0.16982 -1.00303
0.0405962 -0.170361 -1.00349
0.0415788 -0.169829 -1.00353
0.0415449 -0.168833 -1.00361
0.0405435 -0.168825 -1.00312
0.041511 -0.167838 -1.0037
0.0405096 -0.167829 -1.0032
0.0404945 -0.167374 -1.00374
0.0402045 -0.158867 -1.00397
0.0402233 -0.159408 -1.00443
0.0412059 -0.158876 -1.00447
0.041172 -0.15788 -1.00456
0.0411381 -0.156884 -1.00464
0.0411042 -0.155889 -1.00473
0.0410703 -0.154893 -1.00482
0.0410364 -0.153897 -1.0049
0.0400199 -0.153434 -1.00495
0.0415304 -0.197787 -1.00162
0.0415153 -0.197332 -1.00217
0.042498 -0.1968 -1.00221
0.0424641 -0.195804 -1.00229
0.0424302 -0.194808 -1.00238
0.0423963 -0.193812 -1.00247
0.0423624 -0.192817 -1.00255
0.0421929 -0.187838 -1.00298
0.042159 -0.186842 -1.00307
0.0421251 -0.185847 -1.00315
0.0420912 -0.184851 -1.00324
0.0420573 -0.183855 -1.00332
0.0410407 -0.183391 -1.00337
0.040649 -0.171897 -1.00386
0.0406678 -0.172438 -1.00431
0.0416505 -0.171906 -1.00435
0.0406151 -0.170902 -1.00394
0.041481 -0.166928 -1.00478
0.0404795 -0.166919 -1.00428
0.0414471 -0.165932 -1.00487
0.0404456 -0.165923 -1.00437
0.0414132 -0.164936 -1.00495
0.0404117 -0.164927 -1.00446
0.0403966 -0.164472 -1.005
0.0402422 -0.159949 -1.00489
0.040261 -0.160489 -1.00534
0.0412437 -0.159957 -1.00538
0.0412098 -0.158962 -1.00547
0.0411759 -0.157966 -1.00555
0.041142 -0.15697 -1.00564
0.0411081 -0.155974 -1.00573
0.0410742 -0.154979 -1.00581
0.0410403 -0.153983 -1.0059
0.0400237 -0.153519 -1.00594
0.0415003 -0.196877 -1.00271
0.0414664 -0.195881 -1.00279
0.0414514 -0.195426 -1.00333
0.042434 -0.194894 -1.00338
0.0424001 -0.193898 -1.00346
0.0423662 -0.192902 -1.00355
0.0423323 -0.191907 -1.00363
0.0422984 -0.190911 -1.00372
0.0422645 -0.189915 -1.0038
0.0422306 -0.188919 -1.00389
0.0421967 -0.187924 -1.00398
0.0421628 -0.186928 -1.00406
0.0421289 -0.185932 -1.00415
0.042095 -0.184937 -1.00423
0.0410596 -0.183932 -1.00382
0.0410785 -0.184473 -1.00428
0.0407206 -0.173975 -1.00468
0.0407395 -0.174515 -1.00514
0.0417221 -0.173983 -1.00518
0.0406867 -0.172979 -1.00477
0.041417 -0.165022 -1.00595
0.0403816 -0.164017 -1.00554
0.0413831 -0.164026 -1.00604
0.0413492 -0.16303 -1.00612
0.0403477 -0.163022 -1.00562
0.0413153 -0.162035 -1.00621
0.0403138 -0.162026 -1.00571
0.0412814 -0.161039 -1.00629
0.0402799 -0.16103 -1.0058
0.0412475 -0.160043 -1.00638
0.0412136 -0.159047 -1.00646
0.0411797 -0.158052 -1.00655
0.0411458 -0.157056 -1.00664
0.0411119 -0.15606 -1.00672
0.041078 -0.155064 -1.00681
0.0410441 -0.154069 -1.00689
0.0400276 -0.153605 -1.00694
0.0414363 -0.194971 -1.00388
0.0414024 -0.193975 -1.00396
0.0413874 -0.19352 -1.0045
0.04237 -0.192988 -1.00454
0.0423361 -0.191992 -1.00463
0.0423022 -0.190997 -1.00472
0.0422683 -0.190001 -1.0048
0.0422344 -0.189005 -1.00489
0.0422005 -0.188009 -1.00497
0.0421666 -0.187014 -1.00506
0.0411312 -0.186009 -1.00465
0.0411501 -0.18655 -1.0051
0.0410973 -0.185013 -1.00473
0.0407583 -0.175056 -1.00559
0.0407772 -0.175597 -1.00605
0.0417598 -0.175065 -1.00609
0.0417259 -0.174069 -1.00617
0.0413869 -0.164112 -1.00703
0.041353 -0.163116 -1.00712
0.0413191 -0.16212 -1.0072
0.0412852 -0.161125 -1.00729
0.0412513 -0.160129 -1.00738
0.0412174 -0.159133 -1.00746
0.0411835 -0.158137 -1.00755
0.0411496 -0.157142 -1.00763
0.0411157 -0.156146 -1.00772
0.0410818 -0.15515 -1.0078
0.0410479 -0.154154 -1.00789
0.0400314 -0.153691 -1.00793
0.0413723 -0.193065 -1.00504
0.0413384 -0.192069 -1.00513
0.0413045 -0.191074 -1.00521
0.0412706 -0.190078 -1.0053
0.0412367 -0.189082 -1.00539
0.0412028 -0.188086 -1.00547
0.0411689 -0.187091 -1.00556
0.040796 -0.176138 -1.0065
0.0408149 -0.176678 -1.00696
0.0417975 -0.176146 -1.007
0.0417636 -0.175151 -1.00708
0.0413568 -0.163202 -1.00811
0.0413229 -0.162206 -1.0082
0.041289 -0.16121 -1.00829
0.0412551 -0.160215 -1.00837
0.0412212 -0.159219 -1.00846
0.0411873 -0.158223 -1.00854
0.0411534 -0.157227 -1.00863
0.0411195 -0.156232 -1.00871
0.0410856 -0.155236 -1.0088
0.0410517 -0.15424 -1.00889
0.0400352 -0.153776 -1.00893
0.0418013 -0.176232 -1.008
0.0408187 -0.176764 -1.00795
0.0417674 -0.175236 -1.00808
0.0413606 -0.163288 -1.00911
0.0413267 -0.162292 -1.0092
0.0412928 -0.161296 -1.00928
0.0412589 -0.1603 -1.00937
0.041225 -0.159305 -1.00945
0.0411911 -0.158309 -1.00954
0.0411572 -0.157313 -1.00963
0.0411233 -0.156317 -1.00971
0.0410894 -0.155322 -1.0098
0.0400541 -0.154317 -1.00939
0.0400729 -0.154858 -1.00984
0.0418052 -0.176318 -1.00899
0.0408225 -0.17685 -1.00895
0.0413306 -0.162378 -1.01019
0.0412967 -0.161382 -1.01028
0.0412628 -0.160386 -1.01036
0.0412289 -0.15939 -1.01045
0.041195 -0.158395 -1.01054
0.0411611 -0.157399 -1.01062
0.0411272 -0.156403 -1.01071
0.0410933 -0.155407 -1.01079
0.0400767 -0.154944 -1.01084
0.0408414 -0.177391 -1.0094
0.0408603 -0.177931 -1.00986
0.0418429 -0.177399 -1.0099
0.041809 -0.176404 -1.00999
0.0413344 -0.162463 -1.01119
0.0413005 -0.161467 -1.01127
0.0412666 -0.160472 -1.01136
0.0412327 -0.159476 -1.01145
0.0411988 -0.15848 -1.01153
0.0411649 -0.157485 -1.01162
0.041131 -0.156489 -1.0117
0.0400956 -0.155484 -1.01129
0.0401145 -0.156025 -1.01175
0.0418467 -0.177485 -1.0109
0.0408641 -0.178017 -1.01086
0.0418128 -0.176489 -1.01098
0.0413382 -0.162549 -1.01219
0.0413043 -0.161553 -1.01227
0.0402689 -0.160549 -1.01186
0.0402878 -0.161089 -1.01231
0.040235 -0.159553 -1.01195
0.0402011 -0.158557 -1.01203
0.0401672 -0.157562 -1.01212
0.0401333 -0.156566 -1.0122
0.0418505 -0.177571 -1.01189
0.0408679 -0.178103 -1.01185
0.0418166 -0.176575 -1.01198
0.0413759 -0.16363 -1.0131
0.0403594 -0.163167 -1.01314
0.0403405 -0.162626 -1.01268
0.0403066 -0.16163 -1.01277
0.0418543 -0.177656 -1.01289
0.0408717 -0.178188 -1.01285
0.0418204 -0.176661 -1.01298
0.0403971 -0.164248 -1.01405
0.0403783 -0.163707 -1.01359
0.0408906 -0.178729 -1.0133
0.0409094 -0.17927 -1.01376
0.041892 -0.178738 -1.0138
0.0418581 -0.177742 -1.01389
0.0418242 -0.176746 -1.01397
0.0404687 -0.166325 -1.01487
0.0404499 -0.165785 -1.01442
0.0414513 -0.165793 -1.01492
0.040416 -0.164789 -1.01451
0.0408944 -0.178815 -1.0143
0.0408794 -0.17836 -1.01484
0.041862 -0.177828 -1.01488
0.0418281 -0.176832 -1.01497
0.0405065 -0.167407 -1.01579
0.0404876 -0.166866 -1.01533
0.0408643 -0.177905 -1.01538
0.0408493 -0.17745 -1.01592
0.0418319 -0.176918 -1.01597
0.041798 -0.175922 -1.01605
0.0405781 -0.169484 -1.01661
0.0405592 -0.168943 -1.01615
0.0415607 -0.168952 -1.01665
0.0405253 -0.167947 -1.01624
0.0408342 -0.176995 -1.01646
0.0408003 -0.175999 -1.01655
0.0407664 -0.175003 -1.01664
0.0407514 -0.174548 -1.01718
0.041734 -0.174016 -1.01722
0.0406497 -0.171561 -1.01743