<VTKFile type="UnstructuredGrid" version="0.1" byte_order="BigEndian">
  <UnstructuredGrid>
    <Piece NumberOfPoints="13082" NumberOfCells="26164">
      <PointData>
        <DataArray type="Float64" Name="position" NumberOfComponents="3" format="ascii">
0.0673944 -0.15547 -1.01214
0.0674141 -0.156004 -1.0126
0.0683963 -0.155471 -1.01263
0.0683615 -0.154474 -1.01271
0.0673596 -0.154473 -1.01221
0.0683267 -0.153477 -1.01278
0.0673248 -0.153476 -1.01228
0.0673098 -0.153014 -1.01282
0.0673991 -0.155542 -1.01314
0.0673643 -0.154545 -1.01321
0.0673295 -0.153549 -1.01328
0.065337 -0.154181 -1.00723
0.0653568 -0.154715 -1.00769
0.0663389 -0.154182 -1.00772
0.065322 -0.153718 -1.00776
0.0653765 -0.15525 -1.00815
0.0653963 -0.155784 -1.00862
0.0663784 -0.155251 -1.00865
0.0663436 -0.154254 -1.00872
0.0653069 -0.153256 -1.0083
0.0663088 -0.153258 -1.00879
0.0652919 -0.152794 -1.00883
0.0663831 -0.155324 -1.00965
0.065401 -0.155857 -1.00961
0.0663483 -0.154327 -1.00972
0.0663135 -0.15333 -1.00979
0.0652966 -0.152867 -1.00983
0.0663878 -0.155396 -1.01064
0.0654057 -0.155929 -1.01061
0.066353 -0.154399 -1.01072
0.0663182 -0.153402 -1.01079
0.0653013 -0.152939 -1.01083
0.0663925 -0.155468 -1.01164
0.0654104 -0.156002 -1.01161
0.0663577 -0.154472 -1.01171
0.0663229 -0.153475 -1.01179
0.065306 -0.153012 -1.01183
0.0654151 -0.156074 -1.0126
0.0653107 -0.153084 -1.01282
0.0654 -0.155612 -1.01314
0.065385 -0.15515 -1.01367
0.0663671 -0.154617 -1.01371
0.0653502 -0.154153 -1.01375
0.0653304 -0.153619 -1.01328
0.0653699 -0.154688 -1.01421
0.0633239 -0.154033 -1.00424
0.0633436 -0.154568 -1.0047
0.0643258 -0.154034 -1.00474
0.0633088 -0.153571 -1.00478
0.0643305 -0.154107 -1.00573
0.0633483 -0.15464 -1.0057
0.0633135 -0.153644 -1.00577
0.0633681 -0.155175 -1.00616
0.0633878 -0.15571 -1.00662
0.0643699 -0.155176 -1.00666
0.0643352 -0.154179 -1.00673
0.0632985 -0.153181 -1.00631
0.0643004 -0.153183 -1.0068
0.0632834 -0.152719 -1.00684
0.0643746 -0.155249 -1.00766
0.0633925 -0.155782 -1.00762
0.0643051 -0.153255 -1.0078
0.0632881 -0.152792 -1.00784
0.0633972 -0.155855 -1.00862
0.0632928 -0.152864 -1.00884
0.0634019 -0.155927 -1.00962
0.0632975 -0.152937 -1.00983
0.0634066 -0.156 -1.01061
0.0633022 -0.153009 -1.01083
0.0634113 -0.156072 -1.01161
0.0633069 -0.153082 -1.01183
0.063416 -0.156144 -1.01261
0.0633116 -0.153154 -1.01283
0.063401 -0.155682 -1.01314
0.0633859 -0.15522 -1.01368
0.0633511 -0.154223 -1.01375
0.0633314 -0.153689 -1.01329
0.0633709 -0.154758 -1.01421
0.0613248 -0.154103 -1.00424
0.0613446 -0.154638 -1.00471
0.0622919 -0.153108 -1.00481
0.06129 -0.153107 -1.00432
0.061275 -0.152644 -1.00485
0.0613643 -0.155173 -1.00517
0.061384 -0.155707 -1.00563
0.0623662 -0.155174 -1.00567
0.0622966 -0.15318 -1.00581
0.0612797 -0.152717 -1.00585
0.0613887 -0.15578 -1.00663
0.0612844 -0.152789 -1.00685
0.0613934 -0.155852 -1.00763
0.0612891 -0.152862 -1.00784
0.0613981 -0.155925 -1.00862
0.0622759 -0.152401 -1.00888
0.061274 -0.1524 -1.00838
0.061259 -0.151938 -1.00891
0.0614028 -0.155997 -1.00962
0.0622806 -0.152473 -1.00987
0.0612637 -0.15201 -1.00991
0.0614075 -0.15607 -1.01062
0.0622853 -0.152546 -1.01087
0.0612684 -0.152083 -1.01091
0.0614122 -0.156142 -1.01162
0.06229 -0.152618 -1.01187
0.0612731 -0.152155 -1.01191
0.061432 -0.156677 -1.01208
0.0614517 -0.157211 -1.01254
0.0624339 -0.156678 -1.01257
0.0622947 -0.152691 -1.01287
0.0612778 -0.152228 -1.0129
0.0614367 -0.156749 -1.01308
0.0614216 -0.156287 -1.01361
0.0624038 -0.155754 -1.01364
0.0623342 -0.15376 -1.01379
0.0613173 -0.153297 -1.01383
0.0612975 -0.152762 -1.01337
0.0614066 -0.155825 -1.01415
0.0613718 -0.154828 -1.01422
0.061337 -0.153831 -1.01429
0.0593605 -0.15517 -1.00418
0.0593803 -0.155705 -1.00464
0.0603624 -0.155171 -1.00467
0.0593257 -0.154173 -1.00425
0.0593107 -0.153711 -1.00478
0.0602928 -0.153178 -1.00482
0.059385 -0.155777 -1.00564
0.0592957 -0.153249 -1.00532
0.0592806 -0.152787 -1.00585
0.0594047 -0.156312 -1.0061
0.0594245 -0.156846 -1.00656
0.0604066 -0.156313 -1.0066
0.0602674 -0.152326 -1.00689
0.0592656 -0.152325 -1.00639
0.0592505 -0.151863 -1.00692
0.0604113 -0.156386 -1.00759
0.0594292 -0.156919 -1.00756
0.0602722 -0.152399 -1.00788
0.0592552 -0.151935 -1.00792
0.060416 -0.156458 -1.00859
0.0594339 -0.156991 -1.00856
0.0592599 -0.152008 -1.00892
0.0604207 -0.156531 -1.00959
0.0594386 -0.157064 -1.00955
0.0592646 -0.15208 -1.00992
0.0604254 -0.156603 -1.01058
0.0594433 -0.157136 -1.01055
0.0592693 -0.152153 -1.01091
0.0604301 -0.156675 -1.01158
0.059448 -0.157209 -1.01155
0.059274 -0.152225 -1.01191
0.0604348 -0.156748 -1.01258
0.0594329 -0.156747 -1.01208
0.0594179 -0.156285 -1.01262
0.0592787 -0.152298 -1.01291
0.0594226 -0.156357 -1.01362
0.0593182 -0.153367 -1.01383
0.0592985 -0.152832 -1.01337
0.0594075 -0.155895 -1.01415
0.0593727 -0.154898 -1.01422
0.059338 -0.153901 -1.0143
0.0573963 -0.156237 -1.00411
0.057416 -0.156772 -1.00457
0.0583981 -0.156238 -1.0046
0.0573615 -0.15524 -1.00418
0.0573267 -0.154243 -1.00425
0.0573116 -0.153781 -1.00479
0.0584028 -0.156311 -1.0056
0.0574207 -0.156844 -1.00557
0.0572966 -0.153319 -1.00532
0.0572816 -0.152857 -1.00586
0.0574254 -0.156917 -1.00657
0.0582684 -0.152396 -1.00689
0.0572863 -0.15293 -1.00686
0.0574451 -0.157451 -1.00703
0.0574649 -0.157986 -1.00749
0.058447 -0.157452 -1.00752
0.0572712 -0.152467 -1.00739
0.0572562 -0.152005 -1.00793
0.0584517 -0.157525 -1.00852
0.0574696 -0.158058 -1.00849
0.0572609 -0.152078 -1.00892
0.0584564 -0.157597 -1.00952
0.0574743 -0.158131 -1.00948
0.0572656 -0.15215 -1.00992
0.0584611 -0.15767 -1.01052
0.057479 -0.158203 -1.01048
0.0573051 -0.153219 -1.01085
0.0572853 -0.152685 -1.01038
0.0582872 -0.152686 -1.01088
0.0584658 -0.157742 -1.01151
0.0574837 -0.158276 -1.01148
0.0582919 -0.152759 -1.01188
0.0573098 -0.153292 -1.01184
0.0584705 -0.157815 -1.01251
0.0574884 -0.158348 -1.01248
0.0584357 -0.156818 -1.01258
0.0582966 -0.152831 -1.01287
0.0573145 -0.153364 -1.01284
0.0574733 -0.157886 -1.01301
0.0574583 -0.157424 -1.01355
0.0584404 -0.156891 -1.01358
0.0573539 -0.154434 -1.01376
0.0573342 -0.153899 -1.0133
0.0583361 -0.1539 -1.0138
0.0574433 -0.156962 -1.01408
0.0574282 -0.1565 -1.01462
0.0584104 -0.155966 -1.01465
0.0573934 -0.155503 -1.01469
0.0573737 -0.154968 -1.01423
0.0574132 -0.156038 -1.01515
0.0553972 -0.156307 -1.00411
0.0554169 -0.156842 -1.00457
0.0553624 -0.15531 -1.00419
0.0553474 -0.154848 -1.00472
0.0563295 -0.154315 -1.00475
0.0554367 -0.157376 -1.00504
0.0554564 -0.157911 -1.0055
0.0564386 -0.157378 -1.00553
0.0553323 -0.154386 -1.00526
0.0553173 -0.153924 -1.00579
0.0562994 -0.153391 -1.00582
0.0564433 -0.15745 -1.00653
0.0554611 -0.157983 -1.0065
0.0553022 -0.153462 -1.00633
0.0552872 -0.153 -1.00686
0.0554658 -0.158056 -1.00749
0.0552721 -0.152538 -1.0074
0.0552571 -0.152075 -1.00793
0.0554705 -0.158128 -1.00849
0.0552618 -0.152148 -1.00893
0.0554752 -0.158201 -1.00949
0.0553013 -0.153217 -1.00985
0.0552815 -0.152682 -1.00939
0.0562834 -0.152684 -1.00989
0.0554799 -0.158273 -1.01049
0.055306 -0.15329 -1.01085
0.0554846 -0.158346 -1.01148
0.0553107 -0.153362 -1.01185
0.0554893 -0.158418 -1.01248
0.0553154 -0.153435 -1.01284
0.0554743 -0.157956 -1.01302
0.0554592 -0.157494 -1.01355
0.0553549 -0.154504 -1.01377
0.0553351 -0.153969 -1.01331
0.0564461 -0.157033 -1.01458
0.0554639 -0.157567 -1.01455
0.0553944 -0.155573 -1.01469
0.0553746 -0.155038 -1.01423
0.0554489 -0.157104 -1.01508
0.0554141 -0.156108 -1.01516
0.0533934 -0.156305 -1.00312
0.0534132 -0.156839 -1.00358
0.0543953 -0.156306 -1.00362
0.0533784 -0.155843 -1.00365
0.0534329 -0.157374 -1.00404
0.0534527 -0.157909 -1.00451
0.0544348 -0.157375 -1.00454
0.0533633 -0.15538 -1.00419
0.0533483 -0.154918 -1.00472
0.0534574 -0.157981 -1.0055
0.0533333 -0.154456 -1.00526
0.0533182 -0.153994 -1.00579
0.0534771 -0.158516 -1.00597
0.0534969 -0.15905 -1.00643
0.054479 -0.158517 -1.00646
0.0533032 -0.153532 -1.00633
0.0532881 -0.15307 -1.00686
0.0544837 -0.158589 -1.00746
0.0535016 -0.159123 -1.00743
0.054275 -0.152609 -1.0079
0.0532928 -0.153142 -1.00786
0.0544884 -0.158662 -1.00846
0.0535063 -0.159195 -1.00842
0.0532778 -0.15268 -1.0084
0.0532627 -0.152218 -1.00893
0.0544931 -0.158734 -1.00945
0.053511 -0.159268 -1.00942
0.0542844 -0.152754 -1.00989
0.0532674 -0.15229 -1.00993
0.0544978 -0.158807 -1.01045
0.0535157 -0.15934 -1.01042
0.0533069 -0.15336 -1.01085
0.0532872 -0.152825 -1.01039
0.0545025 -0.158879 -1.01145
0.0535204 -0.159413 -1.01142
0.0533116 -0.153432 -1.01185
0.0535053 -0.158951 -1.01195
0.0534903 -0.158488 -1.01249
0.0533163 -0.153505 -1.01285
0.0544771 -0.158027 -1.01352
0.053495 -0.158561 -1.01348
0.0533558 -0.154574 -1.01377
0.0533361 -0.154039 -1.01331
0.0534799 -0.158099 -1.01402
0.0534649 -0.157637 -1.01455
0.0543774 -0.15511 -1.01473
0.0533605 -0.154646 -1.01477
0.0534498 -0.157174 -1.01509
0.053415 -0.156178 -1.01516
0.0533803 -0.155181 -1.01523
0.0513944 -0.156375 -1.00312
0.0514141 -0.156909 -1.00359
0.0513793 -0.155913 -1.00366
0.0514339 -0.157444 -1.00405
0.0514536 -0.157979 -1.00451
0.0513643 -0.15545 -1.00419
0.0513492 -0.154988 -1.00473
0.0514733 -0.158513 -1.00497
0.0514931 -0.159048 -1.00544
0.0524752 -0.158514 -1.00547
0.0513342 -0.154526 -1.00526
0.0513191 -0.154064 -1.0058
0.0514978 -0.15912 -1.00643
0.0513041 -0.153602 -1.00633
0.0512891 -0.15314 -1.00687
0.0515025 -0.159193 -1.00743
0.0512938 -0.153212 -1.00787
0.0515072 -0.159265 -1.00843
0.0512787 -0.15275 -1.0084
0.0512637 -0.152288 -1.00894
0.0515119 -0.159338 -1.00943
0.0512684 -0.152361 -1.00993
0.0515166 -0.15941 -1.01042
0.05229 -0.152896 -1.01089
0.0512731 -0.152433 -1.01093
0.0515213 -0.159483 -1.01142
0.0513126 -0.153502 -1.01186
0.0512928 -0.152968 -1.01139
0.0525081 -0.159022 -1.01245
0.051526 -0.159555 -1.01242
0.0513173 -0.153575 -1.01285
0.0525128 -0.159094 -1.01345
0.0515307 -0.159628 -1.01341
0.0523389 -0.154111 -1.01381
0.051322 -0.153647 -1.01385
0.0515156 -0.159166 -1.01395
0.0515006 -0.158703 -1.01448
0.0524827 -0.15817 -1.01452
0.0513615 -0.154716 -1.01477
0.0513417 -0.154182 -1.01431
0.0514856 -0.158241 -1.01502
0.0514705 -0.157779 -1.01555
0.0524527 -0.157246 -1.01559
0.0524179 -0.156249 -1.01566
0.0514009 -0.155786 -1.0157
0.0513812 -0.155251 -1.01524
0.0514555 -0.157317 -1.01609
0.0514207 -0.15632 -1.01616
0.0493953 -0.156445 -1.00313
0.049415 -0.156979 -1.00359
0.0493803 -0.155983 -1.00366
0.0494348 -0.157514 -1.00405
0.0494545 -0.158049 -1.00452
0.0493652 -0.155521 -1.0042
0.0493502 -0.155058 -1.00473
0.0494743 -0.158583 -1.00498
0.049494 -0.159118 -1.00544
0.0493351 -0.154596 -1.00527
0.0493201 -0.154134 -1.0058
0.0494987 -0.15919 -1.00644
0.049305 -0.153672 -1.00634
0.04929 -0.15321 -1.00687
0.0495034 -0.159263 -1.00743
0.0492947 -0.153282 -1.00787
0.0495232 -0.159798 -1.0079
0.0495429 -0.160332 -1.00836
0.0505251 -0.159799 -1.00839
0.0492797 -0.15282 -1.00841
0.0492646 -0.152358 -1.00894
0.0505298 -0.159871 -1.00939
0.0495476 -0.160405 -1.00936
0.0492693 -0.152431 -1.00994
0.0505345 -0.159944 -1.01039
0.0495523 -0.160477 -1.01035
0.049274 -0.152503 -1.01094
0.0505392 -0.160016 -1.01139
0.049557 -0.16055 -1.01135
0.0502956 -0.153039 -1.01189
0.0492787 -0.152576 -1.01193
0.0505439 -0.160089 -1.01238
0.0495617 -0.160622 -1.01235
0.0503003 -0.153111 -1.01289
0.0492834 -0.152648 -1.01293
0.0495467 -0.16016 -1.01288
0.0495316 -0.159698 -1.01342
0.050305 -0.153184 -1.01389
0.0492881 -0.152721 -1.01393
0.0505185 -0.159237 -1.01445
0.0495363 -0.15977 -1.01442
0.0503445 -0.154253 -1.01481
0.0493276 -0.15379 -1.01485
0.0493079 -0.153255 -1.01439
0.0495213 -0.159308 -1.01495
0.0495062 -0.158846 -1.01549
0.0504884 -0.158313 -1.01552
0.050384 -0.155322 -1.01574
0.0493671 -0.154859 -1.01578
0.0493473 -0.154324 -1.01531
0.0494912 -0.158384 -1.01602
0.0494564 -0.157387 -1.01609
0.0494216 -0.15639 -1.01617
0.0493868 -0.155394 -1.01624
0.0483981 -0.156516 -1.00363
0.0474357 -0.157584 -1.00406
0.0474555 -0.158119 -1.00452
0.0474009 -0.156587 -1.00413
0.0473662 -0.155591 -1.0042
0.0473511 -0.155129 -1.00474
0.0474752 -0.158653 -1.00498
0.047495 -0.159188 -1.00544
0.0473361 -0.154666 -1.00527
0.047321 -0.154204 -1.00581
0.0474997 -0.159261 -1.00644
0.047306 -0.153742 -1.00634
0.0472909 -0.15328 -1.00688
0.0475194 -0.159795 -1.0069
0.0475391 -0.16033 -1.00737
0.0485213 -0.159796 -1.0074
0.0482778 -0.152819 -1.00791
0.0472759 -0.152818 -1.00741
0.0472608 -0.152356 -1.00795
0.0475438 -0.160402 -1.00836
0.0472655 -0.152428 -1.00894
0.0475485 -0.160475 -1.00936
0.0482524 -0.151967 -1.00998
0.0472505 -0.151966 -1.00948
0.0472355 -0.151504 -1.01001
0.0475532 -0.160547 -1.01036
0.0482571 -0.15204 -1.01097
0.0472402 -0.151576 -1.01101
0.0475579 -0.16062 -1.01136
0.0482618 -0.152112 -1.01197
0.0472449 -0.151649 -1.01201
0.0475627 -0.160692 -1.01235
0.0482665 -0.152185 -1.01297
0.0472496 -0.151721 -1.01301
0.0485495 -0.160231 -1.01338
0.0475674 -0.160765 -1.01335
0.0482712 -0.152257 -1.01397
0.0472543 -0.151794 -1.014
0.0485542 -0.160304 -1.01438
0.0475721 -0.160837 -1.01435
0.0483107 -0.153326 -1.01489
0.0472937 -0.152863 -1.01493
0.047274 -0.152328 -1.01447
0.047557 -0.160375 -1.01488
0.047542 -0.159913 -1.01542
0.0485241 -0.159379 -1.01545
0.0483502 -0.154396 -1.01582
0.0473332 -0.153932 -1.01585
0.0473135 -0.153398 -1.01539
0.0475269 -0.159451 -1.01595
0.0475119 -0.158989 -1.01649
0.048494 -0.158455 -1.01652
0.0484592 -0.157458 -1.01659
0.0484244 -0.156462 -1.01667
0.0474075 -0.155998 -1.01671
0.0473878 -0.155464 -1.01624
0.047353 -0.154467 -1.01632
0.0474968 -0.158526 -1.01702
0.047462 -0.15753 -1.0171
0.0474273 -0.156533 -1.01717
0.0454367 -0.157654 -1.00406
0.0454564 -0.158189 -1.00452
0.0454019 -0.156658 -1.00413
0.0453671 -0.155661 -1.00421
0.045352 -0.155199 -1.00474
0.0454762 -0.158723 -1.00499
0.0454959 -0.159258 -1.00545
0.045337 -0.154736 -1.00528
0.0463041 -0.153741 -1.00585
0.0453022 -0.15374 -1.00535
0.0452872 -0.153278 -1.00588
0.0455156 -0.159793 -1.00591
0.0455354 -0.160327 -1.00637
0.0465175 -0.159794 -1.00641
0.046274 -0.152817 -1.00692
0.0452721 -0.152815 -1.00642
0.0452571 -0.152353 -1.00695
0.0455401 -0.1604 -1.00737
0.0452618 -0.152426 -1.00795
0.0455598 -0.160934 -1.00783
0.0455796 -0.161469 -1.0083
0.0465617 -0.160936 -1.00833
0.0462486 -0.151965 -1.00898
0.0452467 -0.151964 -1.00849
0.0452317 -0.151502 -1.00902
0.0465664 -0.161008 -1.00933
0.0455843 -0.161542 -1.00929
0.0452364 -0.151574 -1.01002
0.0465711 -0.161081 -1.01032
0.045589 -0.161614 -1.01029
0.0452411 -0.151646 -1.01102
0.0465758 -0.161153 -1.01132
0.0455937 -0.161687 -1.01129
0.0462279 -0.151186 -1.01205
0.0452261 -0.151184 -1.01155
0.045211 -0.150722 -1.01209
0.0465805 -0.161226 -1.01232
0.0455984 -0.161759 -1.01229
0.0462326 -0.151258 -1.01305
0.0452157 -0.150795 -1.01308
0.0465852 -0.161298 -1.01332
0.0456031 -0.161831 -1.01328
0.0462373 -0.151331 -1.01404
0.0452204 -0.150867 -1.01408
0.0465899 -0.161371 -1.01431
0.0456078 -0.161904 -1.01428
0.0462768 -0.1524 -1.01497
0.046242 -0.151403 -1.01504
0.0452251 -0.15094 -1.01508
0.0455927 -0.161442 -1.01481
0.0455777 -0.16098 -1.01535
0.0465598 -0.160446 -1.01538
0.0463163 -0.153469 -1.01589
0.0452994 -0.153006 -1.01593
0.0452796 -0.152471 -1.01547
0.0452449 -0.151474 -1.01554
0.0455626 -0.160518 -1.01588
0.0455476 -0.160055 -1.01642
0.0465297 -0.159522 -1.01645
0.0463906 -0.155535 -1.01674
0.0453737 -0.155072 -1.01678
0.0453539 -0.154537 -1.01632
0.0453191 -0.15354 -1.01639
0.0455326 -0.159593 -1.01695
0.0454978 -0.158597 -1.01703
0.045463 -0.1576 -1.0171
0.0454282 -0.156603 -1.01717
0.0453934 -0.155606 -1.01725
0.0441982 -0.17958 -1.00147
0.044218 -0.180115 -1.00193
0.0452001 -0.179582 -1.00197
0.0451653 -0.178585 -1.00204
0.0441634 -0.178584 -1.00154
0.0451305 -0.177588 -1.00211
0.0441287 -0.177587 -1.00162
0.0450958 -0.176591 -1.00219
0.0440939 -0.17659 -1.00169
0.045061 -0.175595 -1.00226
0.0440591 -0.175593 -1.00176
0.044044 -0.175131 -1.0023
0.0442029 -0.179653 -1.00247
0.0441879 -0.179191 -1.003
0.04517 -0.178657 -1.00304
0.0451352 -0.177661 -1.00311
0.0451005 -0.176664 -1.00318
0.0450657 -0.175667 -1.00326
0.0440487 -0.175204 -1.00329
0.0434376 -0.157724 -1.00407
0.0434573 -0.158259 -1.00453
0.0434028 -0.156728 -1.00414
0.043368 -0.155731 -1.00421
0.0443351 -0.154735 -1.00478
0.0433332 -0.154734 -1.00428
0.0433182 -0.154272 -1.00482
0.0441728 -0.178729 -1.00354
0.0441381 -0.177732 -1.00361
0.0441033 -0.176735 -1.00368
0.0440685 -0.175738 -1.00376
0.0435119 -0.15979 -1.00492
0.0435316 -0.160325 -1.00538
0.0445138 -0.159792 -1.00541
0.0434771 -0.158794 -1.00499
0.0433031 -0.15381 -1.00535
0.0442702 -0.152814 -1.00592
0.0432684 -0.152813 -1.00543
0.0432533 -0.152351 -1.00596
0.0435363 -0.160397 -1.00638
0.0442402 -0.15189 -1.00699
0.0432383 -0.151889 -1.0065
0.0432232 -0.151427 -1.00703
0.0435561 -0.160932 -1.00684
0.0435758 -0.161467 -1.0073
0.0445579 -0.160933 -1.00734
0.0442449 -0.151962 -1.00799
0.0432082 -0.150965 -1.00757
0.0442101 -0.150966 -1.00806
0.0431931 -0.150502 -1.0081
0.0435805 -0.161539 -1.0083
0.0442148 -0.151038 -1.00906
0.0431978 -0.150575 -1.0091
0.0436003 -0.162074 -1.00876
0.04362 -0.162608 -1.00922
0.0446021 -0.162075 -1.00926
0.0442195 -0.151111 -1.01006
0.0431828 -0.150113 -1.00963
0.0441847 -0.150114 -1.01013
0.0431678 -0.149651 -1.01017
0.0446068 -0.162147 -1.01026
0.0436247 -0.162681 -1.01022
0.0442242 -0.151183 -1.01105
0.0441894 -0.150186 -1.01113
0.0431725 -0.149723 -1.01117
0.0446115 -0.16222 -1.01125
0.0436294 -0.162753 -1.01122
0.0441941 -0.150259 -1.01212
0.0431772 -0.149796 -1.01216
0.0446162 -0.162292 -1.01225
0.0436341 -0.162826 -1.01222
0.0432166 -0.150865 -1.01309
0.0431969 -0.15033 -1.01263
0.0446209 -0.162365 -1.01325
0.0436388 -0.162898 -1.01321
0.0432213 -0.150937 -1.01409
0.0446256 -0.162437 -1.01425
0.0436435 -0.162971 -1.01421
0.0432608 -0.152007 -1.01501
0.0432411 -0.151472 -1.01455
0.044243 -0.151473 -1.01504
0.0446303 -0.16251 -1.01524
0.0436482 -0.163043 -1.01521
0.0445955 -0.161513 -1.01532
0.0433351 -0.154073 -1.01586
0.0433154 -0.153538 -1.0154
0.0443172 -0.153539 -1.0159
0.0432806 -0.152541 -1.01547
0.0436332 -0.162581 -1.01574
0.0436181 -0.162119 -1.01628
0.0446003 -0.161586 -1.01631
0.0445655 -0.160589 -1.01639
0.0433746 -0.155142 -1.01679
0.0433549 -0.154607 -1.01632
0.0436031 -0.161657 -1.01681
0.0435683 -0.16066 -1.01689
0.0435532 -0.160198 -1.01742
0.0445354 -0.159665 -1.01746
0.0445006 -0.158668 -1.01753
0.0444658 -0.157671 -1.0176
0.0434489 -0.157208 -1.01764
0.0434291 -0.156673 -1.01718
0.0433943 -0.155676 -1.01725
0.0435382 -0.159736 -1.01796
0.0435034 -0.158739 -1.01803
0.0434686 -0.157742 -1.0181
0.0444709 -0.186086 -1.02205
0.0444906 -0.186621 -1.02252
0.0454728 -0.186088 -1.02255
0.045438 -0.185091 -1.02262
0.0444361 -0.18509 -1.02213
0.0454032 -0.184094 -1.02269
0.0444013 -0.184093 -1.0222
0.0453684 -0.183097 -1.02277
0.0443665 -0.183096 -1.02227
0.0453336 -0.182101 -1.02284
0.0443317 -0.182099 -1.02234
0.0452988 -0.181104 -1.02291
0.0442969 -0.181103 -1.02242
0.045264 -0.180107 -1.02298
0.0442622 -0.180106 -1.02249
0.0452292 -0.17911 -1.02306
0.0442274 -0.179109 -1.02256
0.0451945 -0.178114 -1.02313
0.0441926 -0.178112 -1.02263
0.0441775 -0.17765 -1.02317
0.0440534 -0.174125 -1.02292
0.0440732 -0.17466 -1.02339
0.0450553 -0.174127 -1.02342
0.0440384 -0.173663 -1.02346
0.0445452 -0.188152 -1.0229
0.0445649 -0.188687 -1.02337
0.045547 -0.188154 -1.0234
0.0455123 -0.187157 -1.02347
0.0445104 -0.187156 -1.02298
0.0454775 -0.18616 -1.02355
0.0454427 -0.185163 -1.02362
0.0454079 -0.184167 -1.02369
0.0453731 -0.18317 -1.02376
0.0453383 -0.182173 -1.02384
0.0453035 -0.181176 -1.02391
0.0452687 -0.18018 -1.02398
0.0452339 -0.179183 -1.02405
0.0451992 -0.178186 -1.02413
0.0441625 -0.177188 -1.0237
0.0451644 -0.177189 -1.0242
0.0451296 -0.176192 -1.02427
0.0441277 -0.176191 -1.02378
0.0450948 -0.175196 -1.02435
0.0440929 -0.175195 -1.02385
0.04506 -0.174199 -1.02442
0.0440233 -0.173201 -1.02399
0.0450252 -0.173202 -1.02449
0.0440083 -0.172739 -1.02453
0.0455517 -0.188226 -1.0244
0.0445696 -0.188759 -1.02436
0.045517 -0.187229 -1.02447
0.0454822 -0.186233 -1.02454
0.0454474 -0.185236 -1.02462
0.0454126 -0.184239 -1.02469
0.0453778 -0.183242 -1.02476
0.045343 -0.182246 -1.02483
0.0453082 -0.181249 -1.02491
0.0452734 -0.180252 -1.02498
0.0452386 -0.179255 -1.02505
0.0452039 -0.178258 -1.02512
0.0451691 -0.177262 -1.0252
0.0451343 -0.176265 -1.02527
0.0450995 -0.175268 -1.02534
0.0450647 -0.174271 -1.02542
0.0450299 -0.173275 -1.02549
0.044013 -0.172811 -1.02553
0.0445546 -0.188297 -1.0249
0.0445395 -0.187835 -1.02543
0.0455217 -0.187302 -1.02547
0.0454869 -0.186305 -1.02554
0.0454521 -0.185308 -1.02561
0.0454173 -0.184311 -1.02569
0.0453825 -0.183315 -1.02576
0.0453477 -0.182318 -1.02583
0.0453129 -0.181321 -1.0259
0.0452781 -0.180324 -1.02598
0.0452433 -0.179328 -1.02605
0.0452086 -0.178331 -1.02612
0.0451738 -0.177334 -1.02619
0.045139 -0.176337 -1.02627
0.0451042 -0.175341 -1.02634
0.0450694 -0.174344 -1.02641
0.0450346 -0.173347 -1.02649
0.0440177 -0.172884 -1.02652
0.0445245 -0.187373 -1.02597
0.0444897 -0.186376 -1.02604
0.0444549 -0.18538 -1.02611
0.0444201 -0.184383 -1.02619
0.0443853 -0.183386 -1.02626
0.0443703 -0.182924 -1.0268
0.0453524 -0.18239 -1.02683
0.0453176 -0.181394 -1.0269
0.0452828 -0.180397 -1.02697
0.045248 -0.1794 -1.02705
0.0452133 -0.178403 -1.02712
0.0451785 -0.177407 -1.02719
0.0451437 -0.17641 -1.02726
0.0451089 -0.175413 -1.02734
0.0440722 -0.174415 -1.02691
0.044092 -0.17495 -1.02738
0.0440374 -0.173418 -1.02699
0.0443552 -0.182462 -1.02733
0.0443204 -0.181465 -1.0274
0.0442857 -0.180468 -1.02748
0.0442509 -0.179471 -1.02755
0.0442161 -0.178475 -1.02762
0.0441813 -0.177478 -1.02769
0.0441465 -0.176481 -1.02777
0.0441117 -0.175484 -1.02784
0.042155 -0.178509 -0.999554
0.0421747 -0.179043 -1.00002
0.0431569 -0.17851 -1.00005
0.0431221 -0.177513 -1.00012
0.0421202 -0.177512 -0.999626
0.0421052 -0.17705 -1.00016
0.0409374 -0.143622 -1.00209
0.0409572 -0.144157 -1.00256
0.0419393 -0.143624 -1.00259
0.0419045 -0.142627 -1.00266
0.0409026 -0.142626 -1.00217
0.0418697 -0.14163 -1.00274
0.0408678 -0.141629 -1.00224
0.0408528 -0.141167 -1.00277
0.0423684 -0.184562 -1.00012
0.0423882 -0.185096 -1.00058
0.0433703 -0.184563 -1.00061
0.0433355 -0.183566 -1.00068
0.0423336 -0.183565 -1.00019
0.0433007 -0.18257 -1.00076
0.0422988 -0.182568 -1.00026
0.0432659 -0.181573 -1.00083
0.0422641 -0.181572 -1.00033
0.0432311 -0.180576 -1.0009
0.0422293 -0.180575 -1.00041
0.0431964 -0.179579 -1.00097
0.0421945 -0.179578 -1.00048
0.0431616 -0.178583 -1.00105
0.0431268 -0.177586 -1.00112
0.0420901 -0.176588 -1.0007
0.043092 -0.176589 -1.00119
0.0430572 -0.175592 -1.00127
0.0420553 -0.175591 -1.00077
0.0430224 -0.174595 -1.00134
0.0420205 -0.174594 -1.00084
0.0429876 -0.173599 -1.00141
0.0419857 -0.173598 -1.00091
0.0429528 -0.172602 -1.00148
0.041951 -0.172601 -1.00099
0.0419359 -0.172139 -1.00152
0.0409769 -0.144692 -1.00302
0.0409966 -0.145226 -1.00348
0.0419788 -0.144693 -1.00352
0.041944 -0.143696 -1.00359
0.0419092 -0.142699 -1.00366
0.0418744 -0.141703 -1.00373
0.0408377 -0.140705 -1.00331
0.0418396 -0.140706 -1.00381
0.0408227 -0.140243 -1.00384
0.043375 -0.184636 -1.00161
0.0423929 -0.185169 -1.00158
0.0433402 -0.183639 -1.00168
0.0433054 -0.182642 -1.00175
0.0432706 -0.181645 -1.00183
0.0432358 -0.180648 -1.0019
0.0430271 -0.174668 -1.00234
0.0429923 -0.173671 -1.00241
0.0429575 -0.172674 -1.00248
0.0419209 -0.171677 -1.00206
0.0429228 -0.171678 -1.00255
0.042888 -0.170681 -1.00263
0.0418861 -0.17068 -1.00213
0.041871 -0.170218 -1.00266
0.0413991 -0.156725 -1.00315
0.0414188 -0.15726 -1.00361
0.0424009 -0.156726 -1.00364
0.0423661 -0.15573 -1.00371
0.0413643 -0.155728 -1.00322
0.0423314 -0.154733 -1.00379
0.0413295 -0.154732 -1.00329
0.0413144 -0.15427 -1.00383
0.0410164 -0.145761 -1.00394
0.0410361 -0.146296 -1.00441
0.0420183 -0.145762 -1.00444
0.0419835 -0.144765 -1.00451
0.0419487 -0.143769 -1.00459
0.0419139 -0.142772 -1.00466
0.0418791 -0.141775 -1.00473
0.0418443 -0.140778 -1.0048
0.0408274 -0.140315 -1.00484
0.0423778 -0.184707 -1.00211
0.0423628 -0.184245 -1.00264
0.0433449 -0.183711 -1.00268
0.0433101 -0.182714 -1.00275
0.0432753 -0.181718 -1.00282
0.0432405 -0.180721 -1.0029
0.0432058 -0.179724 -1.00297
0.0430318 -0.17474 -1.00333
0.042997 -0.173744 -1.00341
0.0429622 -0.172747 -1.00348
0.0429275 -0.17175 -1.00355
0.0428927 -0.170753 -1.00362
0.0418757 -0.17029 -1.00366
0.0414733 -0.158791 -1.004
0.0414931 -0.159326 -1.00446
0.0424752 -0.158792 -1.00449
0.0414385 -0.157794 -1.00407
0.0423013 -0.153809 -1.00486
0.0412994 -0.153807 -1.00436
0.0422665 -0.152812 -1.00493
0.0412646 -0.152811 -1.00443
0.0422317 -0.151815 -1.005
0.0412298 -0.151814 -1.00451
0.0412148 -0.151352 -1.00504
0.0410559 -0.14683 -1.00487
0.0410756 -0.147365 -1.00533
0.0420578 -0.146831 -1.00537
0.042023 -0.145835 -1.00544
0.0419882 -0.144838 -1.00551
0.0419534 -0.143841 -1.00558
0.0419186 -0.142844 -1.00566
0.0418838 -0.141848 -1.00573
0.041849 -0.140851 -1.0058
0.0408321 -0.140387 -1.00584
0.0423477 -0.183783 -1.00318
0.0423129 -0.182786 -1.00325
0.0422979 -0.182324 -1.00379
0.04328 -0.18179 -1.00382
0.0432452 -0.180793 -1.00389
0.0432105 -0.179797 -1.00397
0.0431757 -0.1788 -1.00404
0.0431409 -0.177803 -1.00411
0.0431061 -0.176806 -1.00418
0.0430713 -0.17581 -1.00426
0.0430365 -0.174813 -1.00433
0.0430017 -0.173816 -1.0044
0.0429669 -0.172819 -1.00448
0.0429322 -0.171823 -1.00455
0.0418955 -0.170825 -1.00412
0.0419152 -0.171359 -1.00459
0.0415476 -0.160857 -1.00485
0.0415673 -0.161392 -1.00531
0.0425495 -0.160858 -1.00535
0.0415128 -0.15986 -1.00492
0.0422364 -0.151888 -1.006
0.0411997 -0.15089 -1.00558
0.0422016 -0.150891 -1.00607
0.0421668 -0.149894 -1.00614
0.0411649 -0.149893 -1.00565
0.042132 -0.148897 -1.00622
0.0411301 -0.148896 -1.00572
0.0420972 -0.147901 -1.00629
0.0410954 -0.147899 -1.00579
0.0420625 -0.146904 -1.00636
0.0420277 -0.145907 -1.00644
0.0419929 -0.14491 -1.00651
0.0419581 -0.143914 -1.00658
0.0419233 -0.142917 -1.00665
0.0418885 -0.14192 -1.00673
0.0418537 -0.140923 -1.0068
0.0408368 -0.14046 -1.00684
0.0422829 -0.181861 -1.00432
0.0422481 -0.180865 -1.0044
0.042233 -0.180403 -1.00493
0.0432152 -0.179869 -1.00496
0.0431804 -0.178872 -1.00504
0.0431456 -0.177876 -1.00511
0.0431108 -0.176879 -1.00518
0.043076 -0.175882 -1.00525
0.0430412 -0.174885 -1.00533
0.0430064 -0.173889 -1.0054
0.0419698 -0.172891 -1.00498
0.0419895 -0.173425 -1.00544
0.041935 -0.171894 -1.00505
0.0415871 -0.161926 -1.00577
0.0416068 -0.162461 -1.00624
0.042589 -0.161928 -1.00627
0.0425542 -0.160931 -1.00634
0.0422063 -0.150963 -1.00707
0.0421715 -0.149967 -1.00714
0.0421367 -0.14897 -1.00721
0.0421019 -0.147973 -1.00729
0.0420672 -0.146976 -1.00736
0.0420324 -0.14598 -1.00743
0.0419976 -0.144983 -1.00751
0.0419628 -0.143986 -1.00758
0.041928 -0.142989 -1.00765
0.0418932 -0.141993 -1.00772
0.0418584 -0.140996 -1.0078
0.0408415 -0.140532 -1.00783
0.042218 -0.17994 -1.00547
0.0421832 -0.178944 -1.00554
0.0421484 -0.177947 -1.00561
0.0421136 -0.17695 -1.00568
0.0420788 -0.175953 -1.00576
0.042044 -0.174957 -1.00583
0.0420092 -0.17396 -1.0059
0.0416266 -0.162996 -1.0067
0.0416463 -0.16353 -1.00716
0.0426285 -0.162997 -1.0072
0.0425937 -0.162 -1.00727
0.0421762 -0.150039 -1.00814
0.0421414 -0.149042 -1.00821
0.0421066 -0.148046 -1.00828
0.0420719 -0.147049 -1.00836
0.0420371 -0.146052 -1.00843
0.0420023 -0.145055 -1.0085
0.0419675 -0.144059 -1.00858
0.0419327 -0.143062 -1.00865
0.0418979 -0.142065 -1.00872
0.0418631 -0.141068 -1.00879
0.0408462 -0.140605 -1.00883
0.0426332 -0.163069 -1.00819
0.041651 -0.163603 -1.00816
0.0425984 -0.162073 -1.00827
0.0421809 -0.150112 -1.00914
0.0421461 -0.149115 -1.00921
0.0421113 -0.148118 -1.00928
0.0420766 -0.147121 -1.00935
0.0420418 -0.146125 -1.00943
0.042007 -0.145128 -1.0095
0.0419722 -0.144131 -1.00957
0.0419374 -0.143134 -1.00965
0.0419026 -0.142137 -1.00972
0.0408659 -0.14114 -1.00929
0.0408857 -0.141674 -1.00976
0.0426379 -0.163142 -1.00919
0.0416557 -0.163675 -1.00916
0.0421508 -0.149187 -1.01021
0.042116 -0.148191 -1.01028
0.0420813 -0.147194 -1.01035
0.0420465 -0.146197 -1.01042
0.0420117 -0.1452 -1.0105
0.0419769 -0.144203 -1.01057
0.0419421 -0.143207 -1.01064
0.0419073 -0.14221 -1.01072
0.0408904 -0.141747 -1.01075
0.0416755 -0.16421 -1.00962
0.0416952 -0.164744 -1.01008
0.0426774 -0.164211 -1.01012
0.0426426 -0.163214 -1.01019
0.0421555 -0.14926 -1.0112
0.0421207 -0.148263 -1.01128
0.042086 -0.147266 -1.01135
0.0420512 -0.146269 -1.01142
0.0420164 -0.145273 -1.01149
0.0419816 -0.144276 -1.01157
0.0419468 -0.143279 -1.01164
0.0409101 -0.142281 -1.01122
0.0409299 -0.142816 -1.01168
0.0426821 -0.164284 -1.01111
0.0416999 -0.164817 -1.01108
0.0426473 -0.163287 -1.01119
0.0421602 -0.149332 -1.0122
0.0421254 -0.148335 -1.01227
0.0410888 -0.147338 -1.01185
0.0411085 -0.147872 -1.01231
0.041054 -0.146341 -1.01192
0.0410192 -0.145344 -1.012
0.0409844 -0.144347 -1.01207
0.0409496 -0.14335 -1.01214
0.0426868 -0.164356 -1.01211
0.0417046 -0.164889 -1.01208
0.042652 -0.163359 -1.01218
0.0421997 -0.150401 -1.01313
0.0411828 -0.149938 -1.01316
0.041163 -0.149404 -1.0127
0.0411283 -0.148407 -1.01278
0.0426915 -0.164428 -1.01311
0.0417093 -0.164962 -1.01307
0.0426567 -0.163432 -1.01318
0.0412223 -0.151007 -1.01409
0.0412025 -0.150473 -1.01363
0.0417291 -0.165497 -1.01354
0.0417488 -0.166031 -1.014
0.0427309 -0.165498 -1.01403
0.0426962 -0.164501 -1.0141
0.0426614 -0.163504 -1.01418
0.0412966 -0.153073 -1.01494
0.0412768 -0.152539 -1.01448
0.0422787 -0.15254 -1.01498
0.041242 -0.151542 -1.01455
0.0417338 -0.165569 -1.01453
0.0417187 -0.165107 -1.01507
0.0427009 -0.164573 -1.0151
0.0426661 -0.163577 -1.01517
0.041336 -0.154143 -1.01587
0.0413163 -0.153608 -1.0154
0.0417037 -0.164645 -1.0156
0.0416886 -0.164183 -1.01614
0.0426708 -0.163649 -1.01617
0.042636 -0.162652 -1.01624
0.0414103 -0.156209 -1.01672
0.0413906 -0.155674 -1.01626
0.0423925 -0.155675 -1.01675
0.0413558 -0.154677 -1.01633
0.0416736 -0.16372 -1.01667
0.0416388 -0.162724 -1.01675
0.041604 -0.161727 -1.01682
0.041589 -0.161265 -1.01735
0.0425711 -0.160731 -1.01739
0.0414846 -0.158275 -1.01757
0.0414649 -0.15774 -1.01711