<VTKFile type="UnstructuredGrid" version="0.1" byte_order="BigEndian">
  <UnstructuredGrid>
    <Piece NumberOfPoints="13082" NumberOfCells="26164">
      <PointData>
        <DataArray type="Float64" Name="position" NumberOfComponents="3" format="ascii">
0.066544 -0.15595 -1.01219
0.0665635 -0.156485 -1.01265
0.0675454 -0.155951 -1.01268
0.0675101 -0.154955 -1.01276
0.0665087 -0.154954 -1.01226
0.0674749 -0.153958 -1.01283
0.0664735 -0.153957 -1.01233
0.0664577 -0.153495 -1.01287
0.0665478 -0.156023 -1.01318
0.0665125 -0.155027 -1.01326
0.0664773 -0.15403 -1.01333
0.0644907 -0.15466 -1.00727
0.0645102 -0.155195 -1.00774
0.0654921 -0.154661 -1.00777
0.0644749 -0.154198 -1.00781
0.0645297 -0.15573 -1.0082
0.0645493 -0.156264 -1.00866
0.0655311 -0.155731 -1.0087
0.0654959 -0.154734 -1.00877
0.0644592 -0.153736 -1.00834
0.0654606 -0.153737 -1.00884
0.0644435 -0.153274 -1.00888
0.0655349 -0.155803 -1.00969
0.0645531 -0.156337 -1.00966
0.0654997 -0.154807 -1.00977
0.0654644 -0.15381 -1.00984
0.0644473 -0.153347 -1.00988
0.0655387 -0.155876 -1.01069
0.0645569 -0.15641 -1.01066
0.0655035 -0.15488 -1.01076
0.0654682 -0.153883 -1.01084
0.0644511 -0.15342 -1.01087
0.0655425 -0.155949 -1.01169
0.0645607 -0.156483 -1.01165
0.0655073 -0.154953 -1.01176
0.065472 -0.153956 -1.01183
0.0644549 -0.153493 -1.01187
0.0645645 -0.156556 -1.01265
0.0644587 -0.153566 -1.01287
0.0645487 -0.156094 -1.01319
0.064533 -0.155632 -1.01372
0.0655149 -0.155099 -1.01376
0.0644977 -0.154636 -1.01379
0.0644782 -0.154101 -1.01333
0.0645173 -0.155171 -1.01426
0.0624802 -0.154512 -1.00428
0.0624997 -0.155047 -1.00475
0.0634816 -0.154513 -1.00478
0.0624645 -0.15405 -1.00482
0.0634854 -0.154586 -1.00578
0.0625036 -0.15512 -1.00574
0.0624683 -0.154123 -1.00582
0.0625231 -0.155654 -1.00621
0.0625426 -0.156189 -1.00667
0.0635245 -0.155656 -1.0067
0.0634892 -0.154659 -1.00678
0.0624526 -0.153661 -1.00635
0.063454 -0.153662 -1.00685
0.0624368 -0.153199 -1.00689
0.0635283 -0.155728 -1.0077
0.0625464 -0.156262 -1.00767
0.0634578 -0.153735 -1.00785
0.0624406 -0.153272 -1.00789
0.0625502 -0.156335 -1.00866
0.0624444 -0.153345 -1.00888
0.062554 -0.156408 -1.00966
0.0624482 -0.153418 -1.00988
0.0625578 -0.156481 -1.01066
0.062452 -0.153491 -1.01088
0.0625616 -0.156554 -1.01166
0.0624558 -0.153564 -1.01187
0.0625654 -0.156627 -1.01265
0.0624596 -0.153637 -1.01287
0.0625497 -0.156165 -1.01319
0.062534 -0.155703 -1.01372
0.0624987 -0.154707 -1.0138
0.0624792 -0.154172 -1.01333
0.0625182 -0.155241 -1.01426
0.0604812 -0.154583 -1.00429
0.0605007 -0.155118 -1.00475
0.0614473 -0.153587 -1.00486
0.0604459 -0.153586 -1.00436
0.0604302 -0.153124 -1.0049
0.0605202 -0.155652 -1.00521
0.0605398 -0.156187 -1.00567
0.0615217 -0.155653 -1.00571
0.0614511 -0.15366 -1.00586
0.060434 -0.153197 -1.00589
0.0605436 -0.15626 -1.00667
0.0604378 -0.15327 -1.00689
0.0605474 -0.156333 -1.00767
0.0604416 -0.153343 -1.00789
0.0605512 -0.156406 -1.00867
0.0614273 -0.152882 -1.00892
0.0604259 -0.152881 -1.00842
0.0604101 -0.152419 -1.00896
0.060555 -0.156479 -1.00966
0.0614311 -0.152955 -1.00992
0.0604139 -0.152492 -1.00996
0.0605588 -0.156552 -1.01066
0.0614349 -0.153028 -1.01091
0.0604177 -0.152565 -1.01095
0.0605626 -0.156625 -1.01166
0.0614387 -0.153101 -1.01191
0.0604215 -0.152638 -1.01195
0.0605821 -0.15716 -1.01212
0.0606016 -0.157695 -1.01258
0.0615835 -0.157161 -1.01262
0.0614425 -0.153174 -1.01291
0.0604253 -0.152711 -1.01295
0.0605859 -0.157233 -1.01312
0.0605702 -0.156771 -1.01365
0.0615521 -0.156237 -1.01369
0.0614816 -0.154244 -1.01383
0.0604644 -0.153781 -1.01387
0.0604449 -0.153246 -1.01341
0.0605545 -0.156309 -1.01419
0.0605192 -0.155312 -1.01426
0.0604839 -0.154316 -1.01433
0.0585174 -0.15565 -1.00422
0.0585369 -0.156185 -1.00468
0.0595188 -0.155651 -1.00471
0.0584821 -0.154654 -1.00429
0.0584664 -0.154192 -1.00482
0.0594483 -0.153658 -1.00486
0.0585407 -0.156258 -1.00568
0.0584507 -0.15373 -1.00536
0.058435 -0.153268 -1.0059
0.0585603 -0.156793 -1.00614
0.0585798 -0.157328 -1.0066
0.0595617 -0.156794 -1.00664
0.0594206 -0.152807 -1.00693
0.0584192 -0.152806 -1.00643
0.0584035 -0.152344 -1.00697
0.0595655 -0.156867 -1.00763
0.0585836 -0.157401 -1.0076
0.0594244 -0.15288 -1.00793
0.0584073 -0.152417 -1.00796
0.0595693 -0.15694 -1.00863
0.0585874 -0.157474 -1.0086
0.0584111 -0.15249 -1.00896
0.0595731 -0.157013 -1.00963
0.0585912 -0.157547 -1.00959
0.0584149 -0.152563 -1.00996
0.0595769 -0.157086 -1.01062
0.058595 -0.15762 -1.01059
0.0584187 -0.152636 -1.01095
0.0595807 -0.157159 -1.01162
0.0585988 -0.157693 -1.01159
0.0584225 -0.152709 -1.01195
0.0595845 -0.157232 -1.01262
0.0585831 -0.157231 -1.01212
0.0585673 -0.156769 -1.01266
0.0584263 -0.152782 -1.01295
0.0585712 -0.156842 -1.01365
0.0584654 -0.153852 -1.01387
0.0584458 -0.153317 -1.01341
0.0585554 -0.15638 -1.01419
0.0585202 -0.155383 -1.01426
0.0584849 -0.154387 -1.01434
0.0565536 -0.156718 -1.00415
0.0565732 -0.157253 -1.00461
0.057555 -0.156719 -1.00464
0.0565184 -0.155721 -1.00422
0.0564831 -0.154725 -1.00429
0.0564674 -0.154263 -1.00483
0.0575588 -0.156792 -1.00564
0.056577 -0.157326 -1.00561
0.0564516 -0.153801 -1.00536
0.0564359 -0.153339 -1.0059
0.0565808 -0.157399 -1.0066
0.0574216 -0.152878 -1.00693
0.0564397 -0.153412 -1.00689
0.0566003 -0.157934 -1.00706
0.0566198 -0.158468 -1.00753
0.0576017 -0.157935 -1.00756
0.056424 -0.15295 -1.00743
0.0564083 -0.152488 -1.00797
0.0576055 -0.158008 -1.00856
0.0566236 -0.158541 -1.00852
0.0564121 -0.152561 -1.00896
0.0576093 -0.15808 -1.00956
0.0566274 -0.158614 -1.00952
0.0564159 -0.152634 -1.00996
0.0576131 -0.158153 -1.01055
0.0566312 -0.158687 -1.01052
0.0564549 -0.153704 -1.01088
0.0564354 -0.153169 -1.01042
0.0574368 -0.15317 -1.01092
0.0576169 -0.158226 -1.01155
0.056635 -0.15876 -1.01152
0.0574406 -0.153243 -1.01192
0.0564587 -0.153777 -1.01188
0.0576207 -0.158299 -1.01255
0.0566388 -0.158833 -1.01251
0.0575855 -0.157303 -1.01262
0.0574444 -0.153316 -1.01291
0.0564625 -0.15385 -1.01288
0.0566231 -0.158371 -1.01305
0.0566074 -0.157909 -1.01358
0.0575893 -0.157376 -1.01362
0.0565016 -0.154919 -1.0138
0.0564821 -0.154384 -1.01334
0.0574835 -0.154386 -1.01384
0.0565916 -0.157448 -1.01412
0.0565759 -0.156986 -1.01465
0.0575578 -0.156452 -1.01469
0.0565407 -0.155989 -1.01473
0.0565211 -0.155454 -1.01427
0.0565602 -0.156524 -1.01519
0.0545546 -0.156789 -1.00415
0.0545741 -0.157324 -1.00461
0.0545193 -0.155792 -1.00422
0.0545036 -0.15533 -1.00476
0.0554855 -0.154796 -1.00479
0.0545936 -0.157859 -1.00507
0.0546132 -0.158393 -1.00553
0.0555951 -0.15786 -1.00557
0.0544879 -0.154868 -1.00529
0.0544721 -0.154407 -1.00583
0.055454 -0.153873 -1.00586
0.0555989 -0.157933 -1.00657
0.054617 -0.158466 -1.00653
0.0544564 -0.153945 -1.00636
0.0544407 -0.153483 -1.0069
0.0546208 -0.158539 -1.00753
0.054425 -0.153021 -1.00743
0.0544092 -0.152559 -1.00797
0.0546246 -0.158612 -1.00853
0.054413 -0.152632 -1.00897
0.0546284 -0.158685 -1.00952
0.0544521 -0.153702 -1.00989
0.0544326 -0.153167 -1.00943
0.055434 -0.153168 -1.00992
0.0546322 -0.158758 -1.01052
0.0544559 -0.153775 -1.01089
0.054636 -0.158831 -1.01152
0.0544597 -0.153848 -1.01188
0.0546398 -0.158904 -1.01252
0.0544635 -0.153921 -1.01288
0.0546241 -0.158442 -1.01305
0.0546083 -0.15798 -1.01359
0.0545026 -0.15499 -1.01381
0.054483 -0.154455 -1.01334
0.055594 -0.157519 -1.01462
0.0546121 -0.158053 -1.01458
0.0545416 -0.15606 -1.01473
0.0545221 -0.155525 -1.01427
0.0545964 -0.157591 -1.01512
0.0545611 -0.156595 -1.01519
0.0525517 -0.156787 -1.00315
0.0525713 -0.157322 -1.00362
0.0535532 -0.156788 -1.00365
0.052536 -0.156325 -1.00369
0.0525908 -0.157856 -1.00408
0.0526103 -0.158391 -1.00454
0.0535922 -0.157857 -1.00458
0.0525203 -0.155863 -1.00422
0.0525046 -0.155401 -1.00476
0.0526141 -0.158464 -1.00554
0.0524888 -0.154939 -1.00529
0.0524731 -0.154477 -1.00583
0.0526337 -0.158999 -1.006
0.0526532 -0.159534 -1.00646
0.0536351 -0.159 -1.0065
0.0524574 -0.154016 -1.00636
0.0524416 -0.153554 -1.0069
0.0536389 -0.159073 -1.00749
0.052657 -0.159607 -1.00746
0.0534273 -0.153093 -1.00793
0.0524454 -0.153627 -1.0079
0.0536427 -0.159146 -1.00849
0.0526608 -0.15968 -1.00846
0.0524297 -0.153165 -1.00843
0.052414 -0.152703 -1.00897
0.0536465 -0.159219 -1.00949
0.0526646 -0.159753 -1.00945
0.0534349 -0.153239 -1.00993
0.0524178 -0.152776 -1.00996
0.0536503 -0.159292 -1.01049
0.0526684 -0.159826 -1.01045
0.0524569 -0.153846 -1.01089
0.0524373 -0.153311 -1.01043
0.0536541 -0.159365 -1.01148
0.0526722 -0.159899 -1.01145
0.0524607 -0.153918 -1.01189
0.0526565 -0.159437 -1.01198
0.0526408 -0.158975 -1.01252
0.0524645 -0.153991 -1.01288
0.0536264 -0.158514 -1.01355
0.0526446 -0.159048 -1.01352
0.0525035 -0.155061 -1.01381
0.052484 -0.154526 -1.01335
0.0526288 -0.158586 -1.01405
0.0526131 -0.158124 -1.01459
0.0535245 -0.155597 -1.01477
0.0525073 -0.155134 -1.01481
0.0525974 -0.157662 -1.01512
0.0525621 -0.156666 -1.01519
0.0525269 -0.155669 -1.01527
0.0505527 -0.156858 -1.00316
0.0505722 -0.157393 -1.00362
0.050537 -0.156396 -1.00369
0.0505918 -0.157927 -1.00408
0.0506113 -0.158462 -1.00454
0.0505213 -0.155934 -1.00423
0.0505055 -0.155472 -1.00476
0.0506308 -0.158997 -1.005
0.0506504 -0.159532 -1.00547
0.0516323 -0.158998 -1.0055
0.0504898 -0.15501 -1.0053
0.0504741 -0.154548 -1.00583
0.0506542 -0.159605 -1.00646
0.0504583 -0.154086 -1.00637
0.0504426 -0.153625 -1.0069
0.050658 -0.159678 -1.00746
0.0504464 -0.153698 -1.0079
0.0506618 -0.159751 -1.00846
0.0504307 -0.153236 -1.00843
0.050415 -0.152774 -1.00897
0.0506656 -0.159824 -1.00946
0.0504188 -0.152847 -1.00997
0.0506694 -0.159897 -1.01045
0.0514397 -0.153383 -1.01093
0.0504226 -0.15292 -1.01096
0.0506732 -0.15997 -1.01145
0.0504616 -0.153989 -1.01189
0.0504421 -0.153455 -1.01143
0.0516589 -0.159509 -1.01248
0.050677 -0.160043 -1.01245
0.0504654 -0.154062 -1.01289
0.0516627 -0.159582 -1.01348
0.0506808 -0.160116 -1.01345
0.0514864 -0.154598 -1.01385
0.0504692 -0.154135 -1.01388
0.0506651 -0.159654 -1.01398
0.0506493 -0.159192 -1.01452
0.0516312 -0.158658 -1.01455
0.0505083 -0.155205 -1.01481
0.0504888 -0.15467 -1.01435
0.0506336 -0.15873 -1.01505
0.0506179 -0.158268 -1.01559
0.0515998 -0.157734 -1.01562
0.0515645 -0.156738 -1.01569
0.0505473 -0.156275 -1.01573
0.0505278 -0.15574 -1.01527
0.0506021 -0.157806 -1.01612
0.0505669 -0.156809 -1.01619
0.0485537 -0.156929 -1.00316
0.0485732 -0.157463 -1.00362
0.0485379 -0.156467 -1.00369
0.0485927 -0.157998 -1.00408
0.0486123 -0.158533 -1.00454
0.0485222 -0.156005 -1.00423
0.0485065 -0.155543 -1.00476
0.0486318 -0.159068 -1.00501
0.0486513 -0.159603 -1.00547
0.0484908 -0.155081 -1.0053
0.048475 -0.154619 -1.00583
0.0486551 -0.159676 -1.00647
0.0484593 -0.154157 -1.00637
0.0484436 -0.153695 -1.0069
0.0486589 -0.159749 -1.00746
0.0484474 -0.153768 -1.0079
0.0486785 -0.160283 -1.00793
0.048698 -0.160818 -1.00839
0.0496799 -0.160285 -1.00842
0.0484316 -0.153307 -1.00844
0.0484159 -0.152845 -1.00897
0.0496837 -0.160357 -1.00942
0.0487018 -0.160891 -1.00939
0.0484197 -0.152918 -1.00997
0.0496875 -0.16043 -1.01042
0.0487056 -0.160964 -1.01038
0.0484235 -0.152991 -1.01097
0.0496913 -0.160503 -1.01142
0.0487094 -0.161037 -1.01138
0.0494445 -0.153526 -1.01193
0.0484273 -0.153064 -1.01196
0.0496951 -0.160576 -1.01241
0.0487132 -0.16111 -1.01238
0.0494483 -0.153599 -1.01292
0.0484311 -0.153137 -1.01296
0.0486975 -0.160648 -1.01291
0.0486817 -0.160186 -1.01345
0.0494521 -0.153672 -1.01392
0.0484349 -0.153209 -1.01396
0.0496674 -0.159726 -1.01448
0.0486855 -0.160259 -1.01445
0.0494911 -0.154742 -1.01485
0.048474 -0.154279 -1.01488
0.0484545 -0.153744 -1.01442
0.0486698 -0.159798 -1.01498
0.0486541 -0.159336 -1.01552
0.049636 -0.158802 -1.01555
0.0495302 -0.155812 -1.01577
0.048513 -0.155349 -1.01581
0.0484935 -0.154814 -1.01535
0.0486384 -0.158874 -1.01605
0.0486031 -0.157877 -1.01612
0.0485678 -0.15688 -1.0162
0.0485326 -0.155884 -1.01627
0.0475561 -0.157001 -1.00366
0.0465937 -0.158069 -1.00409
0.0466132 -0.158604 -1.00455
0.0465584 -0.157072 -1.00416
0.0465232 -0.156076 -1.00423
0.0465074 -0.155614 -1.00477
0.0466328 -0.159139 -1.00501
0.0466523 -0.159674 -1.00547
0.0464917 -0.155152 -1.0053
0.046476 -0.15469 -1.00584
0.0466561 -0.159747 -1.00647
0.0464603 -0.154228 -1.00637
0.0464445 -0.153766 -1.00691
0.0466756 -0.160281 -1.00693
0.0466951 -0.160816 -1.00739
0.047677 -0.160282 -1.00743
0.0474302 -0.153306 -1.00794
0.0464288 -0.153305 -1.00744
0.0464131 -0.152843 -1.00798
0.046699 -0.160889 -1.00839
0.0464169 -0.152916 -1.00897
0.0467028 -0.160962 -1.00939
0.0474026 -0.152455 -1.01001
0.0464011 -0.152454 -1.00951
0.0463854 -0.151992 -1.01005
0.0467066 -0.161035 -1.01039
0.0474064 -0.152528 -1.011
0.0463892 -0.152065 -1.01104
0.0467104 -0.161108 -1.01138
0.0474102 -0.152601 -1.012
0.046393 -0.152138 -1.01204
0.0467142 -0.161181 -1.01238
0.047414 -0.152674 -1.013
0.0463968 -0.152211 -1.01304
0.0476999 -0.16072 -1.01341
0.046718 -0.161254 -1.01338
0.0474178 -0.152747 -1.014
0.0464006 -0.152284 -1.01403
0.0477037 -0.160793 -1.01441
0.0467218 -0.161327 -1.01437
0.0474568 -0.153816 -1.01492
0.0464397 -0.153353 -1.01496
0.0464202 -0.152819 -1.0145
0.046706 -0.160865 -1.01491
0.0466903 -0.160403 -1.01544
0.0476722 -0.159869 -1.01548
0.0474959 -0.154886 -1.01585
0.0464787 -0.154423 -1.01588
0.0464592 -0.153888 -1.01542
0.0466746 -0.159941 -1.01598
0.0466588 -0.15948 -1.01652
0.0476407 -0.158946 -1.01655
0.0476055 -0.157949 -1.01662
0.0475702 -0.156952 -1.0167
0.0465531 -0.156489 -1.01673
0.0465335 -0.155955 -1.01627
0.0464983 -0.154958 -1.01635
0.0466431 -0.159018 -1.01705
0.0466079 -0.158021 -1.01712
0.0465726 -0.157024 -1.0172
0.0445947 -0.15814 -1.00409
0.0446142 -0.158675 -1.00455
0.0445594 -0.157143 -1.00416
0.0445241 -0.156147 -1.00423
0.0445084 -0.155685 -1.00477
0.0446337 -0.15921 -1.00501
0.0446532 -0.159745 -1.00547
0.0444927 -0.155223 -1.0053
0.0454588 -0.154227 -1.00587
0.0444574 -0.154226 -1.00538
0.0444417 -0.153764 -1.00591
0.0446728 -0.160279 -1.00594
0.0446923 -0.160814 -1.0064
0.0456742 -0.16028 -1.00643
0.0454274 -0.153303 -1.00694
0.044426 -0.153302 -1.00645
0.0444102 -0.152841 -1.00698
0.0446961 -0.160887 -1.0074
0.044414 -0.152914 -1.00798
0.0447156 -0.161422 -1.00786
0.0447352 -0.161957 -1.00832
0.0457171 -0.161423 -1.00836
0.0453997 -0.152453 -1.00901
0.0443983 -0.152452 -1.00852
0.0443826 -0.15199 -1.00905
0.0457209 -0.161496 -1.00935
0.044739 -0.16203 -1.00932
0.0443864 -0.152063 -1.01005
0.0457247 -0.161569 -1.01035
0.0447428 -0.162103 -1.01031
0.0443902 -0.152136 -1.01105
0.0457285 -0.161642 -1.01135
0.0447466 -0.162176 -1.01131
0.0453759 -0.151675 -1.01208
0.0443745 -0.151674 -1.01158
0.0443587 -0.151212 -1.01212
0.0457323 -0.161715 -1.01234
0.0447504 -0.162249 -1.01231
0.0453797 -0.151748 -1.01307
0.0443625 -0.151285 -1.01311
0.0457361 -0.161788 -1.01334
0.0447542 -0.162322 -1.01331
0.0453835 -0.151821 -1.01407
0.0443663 -0.151358 -1.01411
0.0457399 -0.161861 -1.01434
0.044758 -0.162395 -1.0143
0.0454225 -0.15289 -1.015
0.0453873 -0.151894 -1.01507
0.0443701 -0.151431 -1.01511
0.0447423 -0.161933 -1.01484
0.0447265 -0.161471 -1.01537
0.0457084 -0.160937 -1.01541
0.0454616 -0.15396 -1.01592
0.0444445 -0.153497 -1.01596
0.0444249 -0.152962 -1.0155
0.0443897 -0.151966 -1.01557
0.0447108 -0.161009 -1.01591
0.0446951 -0.160547 -1.01644
0.045677 -0.160013 -1.01648
0.0455359 -0.156026 -1.01677
0.0445188 -0.155564 -1.01681
0.0444992 -0.155029 -1.01635
0.044464 -0.154032 -1.01642
0.0446793 -0.160085 -1.01698
0.0446441 -0.159089 -1.01705
0.0446088 -0.158092 -1.01713
0.0445736 -0.157095 -1.0172
0.0445383 -0.156098 -1.01727
0.0433675 -0.180065 -1.00149
0.0433871 -0.1806 -1.00195
0.0443689 -0.180067 -1.00198
0.0443337 -0.17907 -1.00206
0.0433323 -0.179069 -1.00156
0.0442984 -0.178073 -1.00213
0.043297 -0.178072 -1.00163
0.0442632 -0.177076 -1.0022
0.0432617 -0.177075 -1.0017
0.0442279 -0.17608 -1.00228
0.0432265 -0.176079 -1.00178
0.0432108 -0.175617 -1.00231
0.0433713 -0.180138 -1.00248
0.0433556 -0.179677 -1.00302
0.0443375 -0.179143 -1.00305
0.0443022 -0.178146 -1.00313
0.044267 -0.177149 -1.0032
0.0442317 -0.176153 -1.00327
0.0432146 -0.17569 -1.00331
0.0425956 -0.158211 -1.00409
0.0426151 -0.158746 -1.00455
0.0425604 -0.157214 -1.00416
0.0425251 -0.156218 -1.00424
0.0434913 -0.155222 -1.00481
0.0424898 -0.155221 -1.00431
0.0424741 -0.154759 -1.00484
0.0433399 -0.179215 -1.00355
0.0433046 -0.178218 -1.00363
0.0432694 -0.177221 -1.0037
0.0432341 -0.176225 -1.00377
0.0426699 -0.160277 -1.00494
0.0426895 -0.160812 -1.0054
0.0436714 -0.160278 -1.00544
0.0426347 -0.159281 -1.00501
0.0424584 -0.154297 -1.00538
0.0434245 -0.153301 -1.00595
0.0424231 -0.1533 -1.00545
0.0424074 -0.152839 -1.00599
0.0426933 -0.160885 -1.0064
0.0433931 -0.152378 -1.00702
0.0423917 -0.152377 -1.00652
0.0423759 -0.151915 -1.00706
0.0427128 -0.16142 -1.00686
0.0427323 -0.161955 -1.00732
0.0437142 -0.161421 -1.00736
0.0433969 -0.152451 -1.00802
0.0423602 -0.151453 -1.00759
0.0433616 -0.151454 -1.00809
0.0423445 -0.150991 -1.00813
0.0427361 -0.162028 -1.00832
0.0433654 -0.151527 -1.00909
0.0423483 -0.151064 -1.00913
0.0427557 -0.162563 -1.00878
0.0427752 -0.163097 -1.00925
0.0437571 -0.162564 -1.00928
0.0433692 -0.1516 -1.01009
0.0423326 -0.150602 -1.00966
0.043334 -0.150603 -1.01016
0.0423168 -0.15014 -1.0102
0.0437609 -0.162637 -1.01028
0.042779 -0.16317 -1.01024
0.043373 -0.151673 -1.01108
0.0433378 -0.150676 -1.01116
0.0423206 -0.150213 -1.01119
0.0437647 -0.16271 -1.01128
0.0427828 -0.163243 -1.01124
0.0433416 -0.150749 -1.01215
0.0423244 -0.150286 -1.01219
0.0437685 -0.162782 -1.01227
0.0427866 -0.163316 -1.01224
0.0423635 -0.151356 -1.01312
0.042344 -0.150821 -1.01265
0.0437723 -0.162855 -1.01327
0.0427904 -0.163389 -1.01324
0.0423673 -0.151429 -1.01411
0.0437761 -0.162928 -1.01427
0.0427942 -0.163462 -1.01423
0.0424064 -0.152498 -1.01504
0.0423868 -0.151964 -1.01457
0.0433882 -0.151965 -1.01507
0.0437799 -0.163001 -1.01527
0.042798 -0.163535 -1.01523
0.0437446 -0.162005 -1.01534
0.0424807 -0.154565 -1.01589
0.0424611 -0.15403 -1.01543
0.0434626 -0.154031 -1.01592
0.0424259 -0.153033 -1.0155
0.0427823 -0.163073 -1.01577
0.0427666 -0.162611 -1.0163
0.0437484 -0.162078 -1.01634
0.0437132 -0.161081 -1.01641
0.0425197 -0.155634 -1.01681
0.0425002 -0.1551 -1.01635
0.0427508 -0.16215 -1.01684
0.0427156 -0.161153 -1.01691
0.0426998 -0.160691 -1.01744
0.0436817 -0.160157 -1.01748
0.0436465 -0.15916 -1.01755
0.0436112 -0.158164 -1.01763
0.0425941 -0.157701 -1.01766
0.0425745 -0.157166 -1.0172
0.0425393 -0.156169 -1.01727
0.0426841 -0.160229 -1.01798
0.0426488 -0.159232 -1.01805
0.0426136 -0.158236 -1.01813
0.0436237 -0.186581 -1.02206
0.0436432 -0.187116 -1.02253
0.0446251 -0.186582 -1.02256
0.0445898 -0.185586 -1.02263
0.0435884 -0.185584 -1.02214
0.0445546 -0.184589 -1.02271
0.0435531 -0.184588 -1.02221
0.0445193 -0.183592 -1.02278
0.0435179 -0.183591 -1.02228
0.044484 -0.182595 -1.02285
0.0434826 -0.182594 -1.02236
0.0444488 -0.181599 -1.02293
0.0434474 -0.181598 -1.02243
0.0444135 -0.180602 -1.023
0.0434121 -0.180601 -1.0225
0.0443783 -0.179605 -1.02307
0.0433768 -0.179604 -1.02258
0.044343 -0.178609 -1.02315
0.0433416 -0.178608 -1.02265
0.0433259 -0.178146 -1.02318
0.0432006 -0.174621 -1.02294
0.0432201 -0.175156 -1.0234
0.044202 -0.174622 -1.02344
0.0431848 -0.174159 -1.02348
0.043698 -0.188648 -1.02292
0.0437175 -0.189182 -1.02338
0.0446994 -0.188649 -1.02341
0.0446641 -0.187652 -1.02349
0.0436627 -0.187651 -1.02299
0.0446289 -0.186655 -1.02356
0.0445936 -0.185658 -1.02363
0.0445584 -0.184662 -1.02371
0.0445231 -0.183665 -1.02378
0.0444879 -0.182668 -1.02385
0.0444526 -0.181672 -1.02392
0.0444173 -0.180675 -1.024
0.0443821 -0.179678 -1.02407
0.0443468 -0.178682 -1.02414
0.0433101 -0.177684 -1.02372
0.0443116 -0.177685 -1.02422
0.0442763 -0.176688 -1.02429
0.0432749 -0.176687 -1.02379
0.044241 -0.175691 -1.02436
0.0432396 -0.17569 -1.02387
0.0442058 -0.174695 -1.02444
0.0431691 -0.173697 -1.02401
0.0441705 -0.173698 -1.02451
0.0431534 -0.173235 -1.02455
0.0447032 -0.188722 -1.02441
0.0437213 -0.189255 -1.02437
0.044668 -0.187725 -1.02448
0.0446327 -0.186728 -1.02456
0.0445974 -0.185731 -1.02463
0.0445622 -0.184735 -1.0247
0.0445269 -0.183738 -1.02478
0.0444917 -0.182741 -1.02485
0.0444564 -0.181745 -1.02492
0.0444211 -0.180748 -1.02499
0.0443859 -0.179751 -1.02507
0.0443506 -0.178754 -1.02514
0.0443154 -0.177758 -1.02521
0.0442801 -0.176761 -1.02529
0.0442448 -0.175764 -1.02536
0.0442096 -0.174768 -1.02543
0.0441743 -0.173771 -1.02551
0.0431572 -0.173308 -1.02554
0.0437056 -0.188793 -1.02491
0.0436899 -0.188332 -1.02545
0.0446718 -0.187798 -1.02548
0.0446365 -0.186801 -1.02555
0.0446012 -0.185804 -1.02563
0.044566 -0.184808 -1.0257
0.0445307 -0.183811 -1.02577
0.0444955 -0.182814 -1.02585
0.0444602 -0.181818 -1.02592
0.0444249 -0.180821 -1.02599
0.0443897 -0.179824 -1.02606
0.0443544 -0.178827 -1.02614
0.0443192 -0.177831 -1.02621
0.0442839 -0.176834 -1.02628
0.0442486 -0.175837 -1.02636
0.0442134 -0.174841 -1.02643
0.0441781 -0.173844 -1.0265
0.043161 -0.173381 -1.02654
0.0436741 -0.18787 -1.02598
0.0436389 -0.186873 -1.02605
0.0436036 -0.185876 -1.02613
0.0435684 -0.18488 -1.0262
0.0435331 -0.183883 -1.02627
0.0435174 -0.183421 -1.02681
0.0444993 -0.182887 -1.02684
0.044464 -0.181891 -1.02692
0.0444287 -0.180894 -1.02699
0.0443935 -0.179897 -1.02706
0.0443582 -0.1789 -1.02714
0.044323 -0.177904 -1.02721
0.0442877 -0.176907 -1.02728
0.0442524 -0.17591 -1.02735
0.0432158 -0.174913 -1.02693
0.0432353 -0.175447 -1.02739
0.0431805 -0.173916 -1.027
0.0435016 -0.182959 -1.02734
0.0434664 -0.181962 -1.02742
0.0434311 -0.180966 -1.02749
0.0433959 -0.179969 -1.02756
0.0433606 -0.178972 -1.02764
0.0433253 -0.177976 -1.02771
0.0432901 -0.176979 -1.02778
0.0432548 -0.175982 -1.02785
0.0413256 -0.178994 -0.999566
0.0413452 -0.179529 -1.00003
0.042327 -0.178995 -1.00006
0.0422918 -0.177998 -1.00014
0.0412904 -0.177997 -0.999639
0.0412746 -0.177535 -1.00017
0.0400915 -0.144109 -1.00212
0.0401111 -0.144644 -1.00259
0.041093 -0.14411 -1.00262
0.0410577 -0.143113 -1.00269
0.0400563 -0.143112 -1.0022
0.0410224 -0.142117 -1.00277
0.040021 -0.142116 -1.00227
0.0400053 -0.141654 -1.0028
0.041541 -0.185047 -1.00013
0.0415605 -0.185582 -1.00059
0.0425424 -0.185048 -1.00062
0.0425071 -0.184051 -1.0007
0.0415057 -0.18405 -1.0002
0.0424719 -0.183055 -1.00077
0.0414705 -0.183054 -1.00027
0.0424366 -0.182058 -1.00084
0.0414352 -0.182057 -1.00034
0.0424014 -0.181061 -1.00092
0.0413999 -0.18106 -1.00042
0.0423661 -0.180064 -1.00099
0.0413647 -0.180063 -1.00049
0.0423308 -0.179068 -1.00106
0.0422956 -0.178071 -1.00113
0.0412589 -0.177073 -1.00071
0.0422603 -0.177074 -1.00121
0.0422251 -0.176078 -1.00128
0.0412236 -0.176077 -1.00078
0.0421898 -0.175081 -1.00135
0.0411884 -0.17508 -1.00086
0.0421546 -0.174084 -1.00143
0.0411531 -0.174083 -1.00093
0.0421193 -0.173088 -1.0015
0.0411179 -0.173086 -1.001
0.0411021 -0.172625 -1.00154
0.0401306 -0.145179 -1.00305
0.0401501 -0.145714 -1.00351
0.041132 -0.14518 -1.00354
0.0410968 -0.144183 -1.00362
0.0410615 -0.143186 -1.00369
0.0410262 -0.14219 -1.00376
0.0399896 -0.141192 -1.00334
0.040991 -0.141193 -1.00384
0.0399738 -0.14073 -1.00387
0.0425462 -0.185121 -1.00162
0.0415643 -0.185655 -1.00158
0.0425109 -0.184124 -1.00169
0.0424757 -0.183128 -1.00177
0.0424404 -0.182131 -1.00184
0.0424052 -0.181134 -1.00191
0.0421936 -0.175154 -1.00235
0.0421584 -0.174157 -1.00242
0.0421231 -0.17316 -1.0025
0.0410864 -0.172163 -1.00207
0.0420878 -0.172164 -1.00257
0.0420526 -0.171167 -1.00264
0.0410512 -0.171166 -1.00215
0.0410354 -0.170704 -1.00268
0.0405575 -0.157212 -1.00317
0.0405771 -0.157747 -1.00363
0.0415589 -0.157213 -1.00367
0.0415237 -0.156216 -1.00374
0.0405223 -0.156215 -1.00324
0.0414884 -0.15522 -1.00381
0.040487 -0.155219 -1.00331
0.0404713 -0.154757 -1.00385
0.0401697 -0.146248 -1.00397
0.0401892 -0.146783 -1.00443
0.0411711 -0.146249 -1.00447
0.0411358 -0.145253 -1.00454
0.0411006 -0.144256 -1.00462
0.0410653 -0.143259 -1.00469
0.04103 -0.142263 -1.00476
0.0409948 -0.141266 -1.00483
0.0399776 -0.140803 -1.00487
0.0415486 -0.185193 -1.00212
0.0415329 -0.184731 -1.00266
0.0425148 -0.184197 -1.00269
0.0424795 -0.1832 -1.00276
0.0424442 -0.182204 -1.00284
0.042409 -0.181207 -1.00291
0.0423737 -0.18021 -1.00298
0.0421974 -0.175227 -1.00335
0.0421622 -0.17423 -1.00342
0.0421269 -0.173233 -1.00349
0.0420916 -0.172237 -1.00357
0.0420564 -0.17124 -1.00364
0.0410392 -0.170777 -1.00368
0.0406318 -0.159279 -1.00402
0.0406514 -0.159813 -1.00448
0.0416333 -0.15928 -1.00452
0.0405966 -0.158282 -1.00409
0.041457 -0.154296 -1.00488
0.0404555 -0.154295 -1.00438
0.0414217 -0.153299 -1.00496
0.0404203 -0.153298 -1.00446
0.0413864 -0.152303 -1.00503
0.040385 -0.152302 -1.00453
0.0403693 -0.15184 -1.00507
0.0402087 -0.147318 -1.0049
0.0402283 -0.147853 -1.00536
0.0412101 -0.147319 -1.00539
0.0411749 -0.146322 -1.00547
0.0411396 -0.145326 -1.00554
0.0411044 -0.144329 -1.00561
0.0410691 -0.143332 -1.00569
0.0410338 -0.142336 -1.00576
0.0409986 -0.141339 -1.00583
0.0399814 -0.140876 -1.00587
0.0415171 -0.184269 -1.00319
0.0414819 -0.183272 -1.00326
0.0414661 -0.182811 -1.0038
0.042448 -0.182277 -1.00383
0.0424128 -0.18128 -1.00391
0.0423775 -0.180283 -1.00398
0.0423423 -0.179287 -1.00405
0.042307 -0.17829 -1.00413
0.0422717 -0.177293 -1.0042
0.0422365 -0.176297 -1.00427
0.0422012 -0.1753 -1.00435
0.042166 -0.174303 -1.00442
0.0421307 -0.173306 -1.00449
0.0420954 -0.17231 -1.00456
0.0410588 -0.171312 -1.00414
0.0410783 -0.171847 -1.0046
0.0407062 -0.161345 -1.00487
0.0407257 -0.16188 -1.00533
0.0417076 -0.161346 -1.00537
0.0406709 -0.160348 -1.00494
0.0413902 -0.152376 -1.00603
0.0403536 -0.151378 -1.0056
0.041355 -0.151379 -1.0061
0.0413197 -0.150382 -1.00617
0.0403183 -0.150381 -1.00567
0.0412845 -0.149385 -1.00624
0.040283 -0.149384 -1.00575
0.0412492 -0.148389 -1.00632
0.0402478 -0.148388 -1.00582
0.0412139 -0.147392 -1.00639
0.0411787 -0.146395 -1.00646
0.0411434 -0.145399 -1.00654
0.0411082 -0.144402 -1.00661
0.0410729 -0.143405 -1.00668
0.0410377 -0.142409 -1.00676
0.0410024 -0.141412 -1.00683
0.0399852 -0.140949 -1.00687
0.0414504 -0.182349 -1.00433
0.0414152 -0.181352 -1.00441
0.0413994 -0.18089 -1.00494
0.0423813 -0.180356 -1.00498
0.0423461 -0.17936 -1.00505
0.0423108 -0.178363 -1.00512
0.0422755 -0.177366 -1.0052
0.0422403 -0.176369 -1.00527
0.042205 -0.175373 -1.00534
0.0421698 -0.174376 -1.00542
0.0411331 -0.173378 -1.00499
0.0411526 -0.173913 -1.00545
0.0410978 -0.172382 -1.00506
0.0407452 -0.162415 -1.00579
0.0407648 -0.162949 -1.00626
0.0417466 -0.162416 -1.00629
0.0417114 -0.161419 -1.00637
0.0413588 -0.151452 -1.0071
0.0413235 -0.150455 -1.00717
0.0412883 -0.149458 -1.00724
0.041253 -0.148462 -1.00732
0.0412178 -0.147465 -1.00739
0.0411825 -0.146468 -1.00746
0.0411472 -0.145472 -1.00753
0.041112 -0.144475 -1.00761
0.0410767 -0.143478 -1.00768
0.0410415 -0.142482 -1.00775
0.0410062 -0.141485 -1.00783
0.039989 -0.141022 -1.00786
0.0413837 -0.180428 -1.00548
0.0413484 -0.179432 -1.00555
0.0413132 -0.178435 -1.00562
0.0412779 -0.177438 -1.0057
0.0412427 -0.176441 -1.00577
0.0412074 -0.175445 -1.00584
0.0411721 -0.174448 -1.00592
0.0407843 -0.163484 -1.00672
0.0408038 -0.164019 -1.00718
0.0417857 -0.163485 -1.00722
0.0417504 -0.162489 -1.00729
0.0413273 -0.150528 -1.00817
0.0412921 -0.149531 -1.00824
0.0412568 -0.148535 -1.00831
0.0412216 -0.147538 -1.00839
0.0411863 -0.146541 -1.00846
0.041151 -0.145545 -1.00853
0.0411158 -0.144548 -1.0086
0.0410805 -0.143551 -1.00868
0.0410453 -0.142554 -1.00875
0.04101 -0.141558 -1.00882
0.0399928 -0.141095 -1.00886
0.0417895 -0.163558 -1.00821
0.0408076 -0.164092 -1.00818
0.0417542 -0.162562 -1.00829
0.0413311 -0.150601 -1.00916
0.0412959 -0.149604 -1.00924
0.0412606 -0.148608 -1.00931
0.0412254 -0.147611 -1.00938
0.0411901 -0.146614 -1.00946
0.0411548 -0.145618 -1.00953
0.0411196 -0.144621 -1.0096
0.0410843 -0.143624 -1.00967
0.0410491 -0.142627 -1.00975
0.0400124 -0.14163 -1.00932
0.0400319 -0.142165 -1.00979
0.0417933 -0.163631 -1.00921
0.0408114 -0.164165 -1.00918
0.0412997 -0.149677 -1.01023
0.0412644 -0.148681 -1.01031
0.0412292 -0.147684 -1.01038
0.0411939 -0.146687 -1.01045
0.0411586 -0.145691 -1.01053
0.0411234 -0.144694 -1.0106
0.0410881 -0.143697 -1.01067
0.0410529 -0.1427 -1.01075
0.0400357 -0.142237 -1.01078
0.040831 -0.1647 -1.00964
0.0408505 -0.165235 -1.0101
0.0418324 -0.164701 -1.01014
0.0417971 -0.163704 -1.01021
0.0413035 -0.14975 -1.01123
0.0412682 -0.148754 -1.0113
0.041233 -0.147757 -1.01138
0.0411977 -0.14676 -1.01145
0.0411624 -0.145763 -1.01152
0.0411272 -0.144767 -1.0116
0.0410919 -0.14377 -1.01167
0.0400552 -0.142772 -1.01125
0.0400748 -0.143307 -1.01171
0.0418362 -0.164774 -1.01113
0.0408543 -0.165308 -1.0111
0.0418009 -0.163777 -1.01121
0.0413073 -0.149823 -1.01223
0.041272 -0.148827 -1.0123
0.0402353 -0.147829 -1.01188
0.0402549 -0.148364 -1.01234
0.0402001 -0.146832 -1.01195
0.0401648 -0.145835 -1.01202
0.0401296 -0.144839 -1.0121
0.0400943 -0.143842 -1.01217
0.04184 -0.164847 -1.01213
0.0408581 -0.165381 -1.01209
0.0418047 -0.16385 -1.0122
0.0413463 -0.150893 -1.01315
0.0403292 -0.15043 -1.01319
0.0403097 -0.149895 -1.01273
0.0402744 -0.148898 -1.0128
0.0418438 -0.16492 -1.01313
0.0408619 -0.165454 -1.01309
0.0418085 -0.163923 -1.0132
0.0403683 -0.1515 -1.01411
0.0403487 -0.150965 -1.01365
0.0408814 -0.165988 -1.01355
0.0409009 -0.166523 -1.01402
0.0418828 -0.165989 -1.01405
0.0418476 -0.164993 -1.01412
0.0418123 -0.163996 -1.0142
0.0404426 -0.153566 -1.01497
0.040423 -0.153031 -1.0145
0.0414245 -0.153032 -1.015
0.0403878 -0.152035 -1.01458
0.0408852 -0.166061 -1.01455
0.0408695 -0.165599 -1.01509
0.0418514 -0.165066 -1.01512
0.0418161 -0.164069 -1.0152
0.0404816 -0.154636 -1.01589
0.0404621 -0.154101 -1.01543
0.0408538 -0.165138 -1.01562
0.040838 -0.164676 -1.01616
0.0418199 -0.164142 -1.01619
0.0417847 -0.163145 -1.01627
0.040556 -0.156702 -1.01674
0.0405364 -0.156167 -1.01628
0.0415378 -0.156168 -1.01678
0.0405012 -0.155171 -1.01635
0.0408223 -0.164214 -1.01669
0.040787 -0.163217 -1.01677
0.0407518 -0.16222 -1.01684
0.0407361 -0.161759 -1.01737
0.0417179 -0.161225 -1.01741
0.0406303 -0.158768 -1.01759