<VTKFile type="UnstructuredGrid" version="0.1" byte_order="BigEndian">
  <UnstructuredGrid>
    <Piece NumberOfPoints="13082" NumberOfCells="26164">
      <PointData>
        <DataArray type="Float64" Name="position" NumberOfComponents="3" format="ascii">
0.064833 -0.155883 -1.01229
0.0648523 -0.156418 -1.01275
0.0658334 -0.155883 -1.01279
0.0657968 -0.154886 -1.01286
0.0647963 -0.154886 -1.01236
0.0657601 -0.15389 -1.01293
0.0647596 -0.15389 -1.01243
0.0647423 -0.153428 -1.01297
0.0648349 -0.155956 -1.01328
0.0647983 -0.154959 -1.01336
0.0647616 -0.153963 -1.01343
0.0627875 -0.154595 -1.00737
0.0628068 -0.15513 -1.00783
0.063788 -0.154595 -1.00787
0.0627701 -0.154133 -1.00791
0.0628261 -0.155665 -1.0083
0.0628455 -0.1562 -1.00876
0.0638266 -0.155664 -1.0088
0.0637899 -0.154668 -1.00887
0.0627528 -0.153671 -1.00844
0.0637532 -0.153671 -1.00894
0.0627354 -0.15321 -1.00898
0.0638286 -0.155737 -1.00979
0.0628474 -0.156272 -1.00976
0.0637919 -0.154741 -1.00987
0.0637552 -0.153744 -1.00994
0.0627374 -0.153283 -1.00998
0.0638305 -0.15581 -1.01079
0.0628494 -0.156345 -1.01075
0.0637939 -0.154814 -1.01086
0.0637572 -0.153817 -1.01094
0.0627394 -0.153355 -1.01097
0.0638325 -0.155883 -1.01179
0.0628514 -0.156418 -1.01175
0.0637958 -0.154887 -1.01186
0.0637592 -0.15389 -1.01193
0.0627413 -0.153428 -1.01197
0.0628534 -0.156491 -1.01275
0.0627433 -0.153501 -1.01297
0.062836 -0.15603 -1.01328
0.0628186 -0.155568 -1.01382
0.0637998 -0.155033 -1.01386
0.062782 -0.154571 -1.01389
0.0627626 -0.154036 -1.01343
0.0628013 -0.155106 -1.01435
0.0607826 -0.15445 -1.00438
0.060802 -0.154984 -1.00484
0.0617831 -0.154449 -1.00488
0.0607653 -0.153988 -1.00491
0.0617851 -0.154522 -1.00588
0.0608039 -0.155057 -1.00584
0.0607673 -0.154061 -1.00591
0.0608233 -0.155592 -1.0063
0.0608426 -0.156127 -1.00676
0.0618237 -0.155592 -1.0068
0.061787 -0.154595 -1.00687
0.0607499 -0.153599 -1.00645
0.0617504 -0.153599 -1.00695
0.0607325 -0.153137 -1.00698
0.0618257 -0.155665 -1.0078
0.0608445 -0.1562 -1.00776
0.0617523 -0.153672 -1.00794
0.0607345 -0.15321 -1.00798
0.0608465 -0.156273 -1.00876
0.0607365 -0.153283 -1.00898
0.0608485 -0.156346 -1.00975
0.0607385 -0.153356 -1.00997
0.0608505 -0.156419 -1.01075
0.0607404 -0.153429 -1.01097
0.0608524 -0.156492 -1.01175
0.0607424 -0.153502 -1.01197
0.0608544 -0.156565 -1.01275
0.0607444 -0.153575 -1.01297
0.0608371 -0.156103 -1.01328
0.0608197 -0.155641 -1.01382
0.060783 -0.154645 -1.01389
0.0607637 -0.15411 -1.01343
0.0608023 -0.155179 -1.01435
0.0587837 -0.154523 -1.00438
0.058803 -0.155058 -1.00484
0.0597475 -0.153526 -1.00495
0.058747 -0.153526 -1.00445
0.0587297 -0.153065 -1.00499
0.0588223 -0.155593 -1.0053
0.0588417 -0.156128 -1.00576
0.0598228 -0.155592 -1.0058
0.0597494 -0.153599 -1.00595
0.0587316 -0.153138 -1.00598
0.0588436 -0.156201 -1.00676
0.0587336 -0.153211 -1.00698
0.0588456 -0.156273 -1.00776
0.0587356 -0.153284 -1.00798
0.0588476 -0.156346 -1.00876
0.0597187 -0.152821 -1.00901
0.0587182 -0.152822 -1.00851
0.0587009 -0.15236 -1.00905
0.0588495 -0.156419 -1.00975
0.0597206 -0.152894 -1.01001
0.0587028 -0.152433 -1.01005
0.0588515 -0.156492 -1.01075
0.0597226 -0.152967 -1.01101
0.0587048 -0.152506 -1.01104
0.0588535 -0.156565 -1.01175
0.0597246 -0.15304 -1.012
0.0587068 -0.152579 -1.01204
0.0588728 -0.1571 -1.01221
0.0588921 -0.157635 -1.01267
0.0598733 -0.1571 -1.01271
0.0597266 -0.153113 -1.013
0.0587087 -0.152652 -1.01304
0.0588748 -0.157173 -1.01321
0.0588574 -0.156711 -1.01374
0.0598386 -0.156176 -1.01378
0.0597652 -0.154183 -1.01393
0.0587474 -0.153721 -1.01396
0.0587281 -0.153187 -1.0135
0.0588401 -0.156249 -1.01428
0.0588034 -0.155253 -1.01435
0.0587667 -0.154256 -1.01442
0.0568214 -0.155593 -1.0043
0.0568407 -0.156128 -1.00477
0.0578219 -0.155593 -1.0048
0.0567847 -0.154597 -1.00438
0.0567674 -0.154135 -1.00491
0.0577485 -0.1536 -1.00495
0.0568427 -0.156201 -1.00576
0.05675 -0.153673 -1.00545
0.0567327 -0.153211 -1.00598
0.056862 -0.156736 -1.00622
0.0568814 -0.157271 -1.00669
0.0578625 -0.156736 -1.00672
0.0577158 -0.152749 -1.00702
0.0567153 -0.152749 -1.00652
0.056698 -0.152287 -1.00705
0.0578645 -0.156809 -1.00772
0.0568833 -0.157344 -1.00768
0.0577178 -0.152822 -1.00801
0.0566999 -0.15236 -1.00805
0.0578664 -0.156882 -1.00872
0.0568853 -0.157417 -1.00868
0.0567019 -0.152433 -1.00905
0.0578684 -0.156954 -1.00972
0.0568873 -0.15749 -1.00968
0.0567039 -0.152506 -1.01004
0.0578704 -0.157027 -1.01071
0.0568892 -0.157563 -1.01068
0.0567059 -0.152579 -1.01104
0.0578724 -0.1571 -1.01171
0.0568912 -0.157635 -1.01167
0.0567078 -0.152652 -1.01204
0.0578743 -0.157173 -1.01271
0.0568739 -0.157174 -1.01221
0.0568565 -0.156712 -1.01274
0.0567098 -0.152725 -1.01304
0.0568585 -0.156785 -1.01374
0.0567485 -0.153795 -1.01396
0.0567291 -0.15326 -1.0135
0.0568411 -0.156323 -1.01428
0.0568045 -0.155326 -1.01435
0.0567678 -0.15433 -1.01442
0.0548592 -0.156663 -1.00423
0.0548785 -0.157198 -1.00469
0.0558596 -0.156663 -1.00473
0.0548225 -0.155667 -1.0043
0.0547858 -0.15467 -1.00437
0.0547684 -0.154208 -1.00491
0.0558616 -0.156736 -1.00573
0.0548804 -0.157271 -1.00569
0.0547511 -0.153746 -1.00544
0.0547337 -0.153284 -1.00598
0.0548824 -0.157344 -1.00669
0.0557168 -0.152822 -1.00701
0.0547357 -0.153357 -1.00698
0.0549017 -0.157879 -1.00715
0.0549211 -0.158414 -1.00761
0.0559022 -0.157879 -1.00765
0.0547184 -0.152896 -1.00751
0.054701 -0.152434 -1.00805
0.0559042 -0.157952 -1.00864
0.054923 -0.158487 -1.00861
0.054703 -0.152507 -1.00905
0.0559061 -0.158025 -1.00964
0.054925 -0.15856 -1.0096
0.0547049 -0.15258 -1.01004
0.0559081 -0.158098 -1.01064
0.054927 -0.158633 -1.0106
0.0547436 -0.153649 -1.01097
0.0547243 -0.153115 -1.0105
0.0557247 -0.153114 -1.011
0.0559101 -0.158171 -1.01164
0.054929 -0.158706 -1.0116
0.0557267 -0.153187 -1.012
0.0547456 -0.153722 -1.01196
0.0559121 -0.158243 -1.01263
0.0549309 -0.158779 -1.0126
0.0558754 -0.157247 -1.01271
0.0557287 -0.15326 -1.013
0.0547475 -0.153795 -1.01296
0.0549136 -0.158317 -1.01313
0.0548962 -0.157855 -1.01367
0.0558774 -0.15732 -1.0137
0.0547862 -0.154865 -1.01389
0.0547669 -0.15433 -1.01342
0.0557673 -0.15433 -1.01392
0.0548789 -0.157393 -1.0142
0.0548615 -0.156931 -1.01474
0.0558426 -0.156396 -1.01477
0.0548248 -0.155935 -1.01481
0.0548055 -0.1554 -1.01435
0.0548442 -0.156469 -1.01527
0.0528602 -0.156737 -1.00423
0.0528795 -0.157272 -1.00469
0.0528235 -0.15574 -1.0043
0.0528062 -0.155278 -1.00484
0.0537873 -0.154743 -1.00487
0.0528989 -0.157806 -1.00515
0.0529182 -0.158341 -1.00561
0.0538993 -0.157806 -1.00565
0.0527888 -0.154816 -1.00537
0.0527715 -0.154355 -1.00591
0.0537526 -0.15382 -1.00594
0.0539013 -0.157879 -1.00665
0.0529201 -0.158414 -1.00661
0.0527541 -0.153893 -1.00644
0.0527368 -0.153431 -1.00698
0.0529221 -0.158487 -1.00761
0.0527194 -0.152969 -1.00751
0.0527021 -0.152507 -1.00805
0.0529241 -0.15856 -1.00861
0.052704 -0.15258 -1.00904
0.0529261 -0.158633 -1.0096
0.0527427 -0.15365 -1.00997
0.0527233 -0.153115 -1.00951
0.0537238 -0.153115 -1.01001
0.052928 -0.158706 -1.0106
0.0527446 -0.153723 -1.01097
0.05293 -0.158779 -1.0116
0.0527466 -0.153796 -1.01196
0.052932 -0.158852 -1.0126
0.0527486 -0.153869 -1.01296
0.0529146 -0.15839 -1.01313
0.0528973 -0.157928 -1.01367
0.0527872 -0.154938 -1.01388
0.0527679 -0.154404 -1.01342
0.0538804 -0.157466 -1.0147
0.0528992 -0.158001 -1.01466
0.0528259 -0.156008 -1.01481
0.0528066 -0.155473 -1.01435
0.0528819 -0.157539 -1.0152
0.0528452 -0.156543 -1.01527
0.0508593 -0.156737 -1.00323
0.0508786 -0.157272 -1.00369
0.0518597 -0.156737 -1.00373
0.0508419 -0.156275 -1.00376
0.0508979 -0.157807 -1.00415
0.0509173 -0.158342 -1.00462
0.0518984 -0.157807 -1.00465
0.0508246 -0.155814 -1.0043
0.0508072 -0.155352 -1.00483
0.0509192 -0.158415 -1.00561
0.0507899 -0.15489 -1.00537
0.0507725 -0.154428 -1.0059
0.0509386 -0.15895 -1.00607
0.0509579 -0.159484 -1.00654
0.051939 -0.158949 -1.00657
0.0507552 -0.153966 -1.00644
0.0507378 -0.153504 -1.00697
0.051941 -0.159022 -1.00757
0.0509599 -0.159557 -1.00753
0.0517209 -0.153042 -1.00801
0.0507398 -0.153577 -1.00797
0.051943 -0.159095 -1.00857
0.0509618 -0.15963 -1.00853
0.0507224 -0.153115 -1.00851
0.0507051 -0.152654 -1.00904
0.0519449 -0.159168 -1.00957
0.0509638 -0.159703 -1.00953
0.0517249 -0.153188 -1.01
0.050707 -0.152727 -1.01004
0.0519469 -0.159241 -1.01056
0.0509658 -0.159776 -1.01053
0.0507457 -0.153796 -1.01096
0.0507264 -0.153261 -1.0105
0.0519489 -0.159314 -1.01156
0.0509677 -0.159849 -1.01152
0.0507477 -0.153869 -1.01196
0.0509504 -0.159387 -1.01206
0.050933 -0.158925 -1.01259
0.0507496 -0.153942 -1.01296
0.0519161 -0.158463 -1.01363
0.050935 -0.158998 -1.01359
0.0507883 -0.155012 -1.01388
0.050769 -0.154477 -1.01342
0.0509176 -0.158537 -1.01413
0.0509003 -0.158075 -1.01466
0.0518081 -0.155546 -1.01484
0.0507903 -0.155085 -1.01488
0.0508829 -0.157613 -1.0152
0.0508463 -0.156616 -1.01527
0.0508096 -0.15562 -1.01534
0.0488603 -0.156811 -1.00323
0.0488797 -0.157346 -1.00369
0.048843 -0.156349 -1.00376
0.048899 -0.15788 -1.00415
0.0489183 -0.158415 -1.00461
0.0488256 -0.155887 -1.0043
0.0488083 -0.155425 -1.00483
0.0489376 -0.15895 -1.00508
0.048957 -0.159485 -1.00554
0.0499381 -0.15895 -1.00558
0.0487909 -0.154963 -1.00537
0.0487736 -0.154502 -1.0059
0.0489589 -0.159558 -1.00654
0.0487562 -0.15404 -1.00644
0.0487389 -0.153578 -1.00697
0.0489609 -0.159631 -1.00753
0.0487408 -0.153651 -1.00797
0.0489629 -0.159704 -1.00853
0.0487235 -0.153189 -1.00851
0.0487061 -0.152727 -1.00904
0.0489648 -0.159777 -1.00953
0.0487081 -0.1528 -1.01004
0.0489668 -0.15985 -1.01052
0.0497279 -0.153335 -1.011
0.0487101 -0.152873 -1.01104
0.0489688 -0.159923 -1.01152
0.0487487 -0.153943 -1.01196
0.0487294 -0.153408 -1.0115
0.0499519 -0.159461 -1.01256
0.0489708 -0.159996 -1.01252
0.0487507 -0.154016 -1.01296
0.0499539 -0.159533 -1.01355
0.0489727 -0.160069 -1.01352
0.0497705 -0.15455 -1.01392
0.0487527 -0.154089 -1.01395
0.0489554 -0.159607 -1.01405
0.048938 -0.159145 -1.01459
0.0499192 -0.15861 -1.01462
0.0487913 -0.155158 -1.01488
0.048772 -0.154623 -1.01442
0.0489207 -0.158683 -1.01512
0.0489033 -0.158221 -1.01566
0.0498845 -0.157686 -1.01569
0.0498478 -0.156689 -1.01577
0.04883 -0.156228 -1.0158
0.0488106 -0.155693 -1.01534
0.048886 -0.157759 -1.01619
0.0488493 -0.156763 -1.01627
0.0468614 -0.156884 -1.00323
0.0468807 -0.157419 -1.00369
0.046844 -0.156422 -1.00376
0.0469 -0.157954 -1.00415
0.0469194 -0.158489 -1.00461
0.0468267 -0.155961 -1.0043
0.0468093 -0.155499 -1.00483
0.0469387 -0.159023 -1.00507
0.046958 -0.159558 -1.00554
0.046792 -0.155037 -1.00537
0.0467746 -0.154575 -1.0059
0.04696 -0.159631 -1.00653
0.0467573 -0.154113 -1.00644
0.0467399 -0.153651 -1.00697
0.046962 -0.159704 -1.00753
0.0467419 -0.153724 -1.00797
0.0469813 -0.160239 -1.00799
0.0470006 -0.160774 -1.00846
0.0479817 -0.160239 -1.00849
0.0467245 -0.153262 -1.0085
0.0467072 -0.152801 -1.00904
0.0479837 -0.160312 -1.00949
0.0470026 -0.160847 -1.00945
0.0467092 -0.152874 -1.01004
0.0479857 -0.160385 -1.01049
0.0470046 -0.16092 -1.01045
0.0467111 -0.152947 -1.01103
0.0479877 -0.160458 -1.01148
0.0470065 -0.160993 -1.01145
0.0477309 -0.153481 -1.012
0.0467131 -0.153019 -1.01203
0.0479896 -0.160531 -1.01248
0.0470085 -0.161066 -1.01244
0.0477329 -0.153554 -1.01299
0.0467151 -0.153092 -1.01303
0.0469911 -0.160604 -1.01298
0.0469738 -0.160142 -1.01352
0.0477349 -0.153627 -1.01399
0.046717 -0.153165 -1.01403
0.0479569 -0.15968 -1.01455
0.0469758 -0.160215 -1.01451
0.0477735 -0.154697 -1.01491
0.0467557 -0.154235 -1.01495
0.0467364 -0.1537 -1.01449
0.0469584 -0.159753 -1.01505
0.0469411 -0.159291 -1.01558
0.0479222 -0.158756 -1.01562
0.0478122 -0.155766 -1.01584
0.0467943 -0.155305 -1.01587
0.046775 -0.15477 -1.01541
0.0469237 -0.158829 -1.01612
0.046887 -0.157833 -1.01619
0.0468503 -0.156836 -1.01626
0.0468137 -0.155839 -1.01634
0.0458629 -0.156957 -1.00372
0.0449011 -0.158027 -1.00415
0.0449204 -0.158562 -1.00461
0.0448644 -0.157031 -1.00422
0.0448277 -0.156034 -1.00429
0.0448104 -0.155572 -1.00483
0.0449397 -0.159097 -1.00507
0.0449591 -0.159632 -1.00554
0.044793 -0.15511 -1.00536
0.0447757 -0.154648 -1.0059
0.044961 -0.159705 -1.00653
0.0447583 -0.154187 -1.00644
0.044741 -0.153725 -1.00697
0.0449804 -0.16024 -1.00699
0.0449997 -0.160774 -1.00746
0.0459808 -0.160239 -1.00749
0.0457241 -0.153263 -1.008
0.0447236 -0.153263 -1.00751
0.0447063 -0.152801 -1.00804
0.0450017 -0.160847 -1.00845
0.0447082 -0.152874 -1.00904
0.0450036 -0.16092 -1.00945
0.0456913 -0.152412 -1.01007
0.0446909 -0.152412 -1.00957
0.0446735 -0.15195 -1.01011
0.0450056 -0.160993 -1.01045
0.0456933 -0.152485 -1.01107
0.0446755 -0.152023 -1.01111
0.0450076 -0.161066 -1.01145
0.0456953 -0.152558 -1.01207
0.0446775 -0.152096 -1.0121
0.0450095 -0.161139 -1.01244
0.0456973 -0.152631 -1.01306
0.0446794 -0.152169 -1.0131
0.0459927 -0.160677 -1.01348
0.0450115 -0.161212 -1.01344
0.0456992 -0.152704 -1.01406
0.0446814 -0.152242 -1.0141
0.0459946 -0.16075 -1.01448
0.0450135 -0.161285 -1.01444
0.0457379 -0.153773 -1.01499
0.0447201 -0.153312 -1.01502
0.0447007 -0.152777 -1.01456
0.0449961 -0.160823 -1.01497
0.0449788 -0.160361 -1.01551
0.0459599 -0.159826 -1.01555
0.0457765 -0.154843 -1.01591
0.0447587 -0.154381 -1.01595
0.0447394 -0.153847 -1.01548
0.0449614 -0.1599 -1.01604
0.0449441 -0.159438 -1.01658
0.0459252 -0.158903 -1.01662
0.0458885 -0.157906 -1.01669
0.0458519 -0.156909 -1.01676
0.044834 -0.156448 -1.0168
0.0448147 -0.155913 -1.01634
0.044778 -0.154916 -1.01641
0.0449267 -0.158976 -1.01711
0.04489 -0.157979 -1.01719
0.0448534 -0.156983 -1.01726
0.0429022 -0.158101 -1.00415
0.0429215 -0.158636 -1.00461
0.0428655 -0.157104 -1.00422
0.0428288 -0.156107 -1.00429
0.0428114 -0.155646 -1.00483
0.0429408 -0.15917 -1.00507
0.0429601 -0.159705 -1.00553
0.0427941 -0.155184 -1.00536
0.0437579 -0.154187 -1.00594
0.0427574 -0.154187 -1.00544
0.0427401 -0.153725 -1.00597
0.0429794 -0.16024 -1.006
0.0429988 -0.160775 -1.00646
0.0439799 -0.16024 -1.0065
0.0437232 -0.153263 -1.00701
0.0427227 -0.153263 -1.00651
0.0427053 -0.152802 -1.00704
0.0430007 -0.160848 -1.00746
0.0427073 -0.152875 -1.00804
0.0430201 -0.161383 -1.00792
0.0430394 -0.161917 -1.00838
0.0440205 -0.161382 -1.00842
0.0436904 -0.152412 -1.00907
0.04269 -0.152413 -1.00857
0.0426726 -0.151951 -1.00911
0.0440225 -0.161455 -1.00941
0.0430414 -0.16199 -1.00938
0.0426746 -0.152024 -1.01011
0.0440245 -0.161528 -1.01041
0.0430433 -0.162063 -1.01037
0.0426766 -0.152097 -1.0111
0.0440264 -0.161601 -1.01141
0.0430453 -0.162136 -1.01137
0.0436597 -0.151635 -1.01214
0.0426592 -0.151635 -1.01164
0.0426418 -0.151173 -1.01217
0.0440284 -0.161674 -1.01241
0.0430473 -0.162209 -1.01237
0.0436616 -0.151708 -1.01314
0.0426438 -0.151246 -1.01317
0.0440304 -0.161747 -1.0134
0.0430493 -0.162282 -1.01337
0.0436636 -0.151781 -1.01413
0.0426458 -0.151319 -1.01417
0.0440324 -0.16182 -1.0144
0.0430512 -0.162355 -1.01436
0.0437023 -0.15285 -1.01506
0.0436656 -0.151854 -1.01513
0.0426478 -0.151392 -1.01517
0.0430339 -0.161893 -1.0149
0.0430165 -0.161432 -1.01543
0.0439977 -0.160896 -1.01547
0.0437409 -0.15392 -1.01598
0.0427231 -0.153458 -1.01602
0.0427038 -0.152923 -1.01556
0.0426671 -0.151927 -1.01563
0.0429992 -0.16097 -1.01597
0.0429818 -0.160508 -1.0165
0.0439629 -0.159973 -1.01654
0.0438162 -0.155986 -1.01683
0.0427984 -0.155525 -1.01687
0.0427791 -0.15499 -1.01641
0.0427424 -0.153993 -1.01648
0.0429645 -0.160046 -1.01704
0.0429278 -0.159049 -1.01711
0.0428911 -0.158053 -1.01719
0.0428544 -0.157056 -1.01726
0.0428177 -0.156059 -1.01733
0.0417081 -0.180028 -1.00154
0.0417275 -0.180563 -1.002
0.0427086 -0.180027 -1.00204
0.0426719 -0.179031 -1.00211
0.0416715 -0.179031 -1.00162
0.0426353 -0.178034 -1.00219
0.0416348 -0.178034 -1.00169
0.0425986 -0.177037 -1.00226
0.0415981 -0.177038 -1.00176
0.0425619 -0.176041 -1.00233
0.0415614 -0.176041 -1.00183
0.0415441 -0.175579 -1.00237
0.0417101 -0.180101 -1.00254
0.0416928 -0.179639 -1.00308
0.0426739 -0.179104 -1.00311
0.0426372 -0.178107 -1.00319
0.0426005 -0.17711 -1.00326
0.0425639 -0.176114 -1.00333
0.0415461 -0.175652 -1.00337
0.0409032 -0.158174 -1.00415
0.0409225 -0.158709 -1.00461
0.0408665 -0.157178 -1.00422
0.0408298 -0.156181 -1.00429
0.0417936 -0.155184 -1.00486
0.0407932 -0.155184 -1.00436
0.0407758 -0.154722 -1.0049
0.0416754 -0.179177 -1.00361
0.0416387 -0.17818 -1.00368
0.0416021 -0.177184 -1.00376
0.0415654 -0.176187 -1.00383
0.0409785 -0.16024 -1.005
0.0409979 -0.160775 -1.00546
0.041979 -0.16024 -1.0055
0.0409419 -0.159244 -1.00507
0.0407585 -0.154261 -1.00544
0.0417222 -0.153264 -1.00601
0.0407218 -0.153264 -1.00551
0.0407044 -0.152802 -1.00604
0.0409998 -0.160848 -1.00646
0.0416875 -0.15234 -1.00708
0.0406871 -0.15234 -1.00658
0.0406697 -0.151878 -1.00711
0.0410192 -0.161383 -1.00692
0.0410385 -0.161918 -1.00738
0.0420196 -0.161383 -1.00742
0.0416895 -0.152413 -1.00808
0.0406524 -0.151417 -1.00765
0.0416528 -0.151416 -1.00815
0.040635 -0.150955 -1.00818
0.0410404 -0.161991 -1.00838
0.0416548 -0.151489 -1.00915
0.040637 -0.151028 -1.00918
0.0410598 -0.162526 -1.00884
0.0410791 -0.16306 -1.0093
0.0420602 -0.162525 -1.00934
0.0416568 -0.151562 -1.01014
0.0406196 -0.150566 -1.00972
0.0416201 -0.150566 -1.01022
0.0406023 -0.150104 -1.01025
0.0420622 -0.162598 -1.01034
0.0410811 -0.163133 -1.0103
0.0416587 -0.151635 -1.01114
0.0416221 -0.150639 -1.01121
0.0406043 -0.150177 -1.01125
0.0420642 -0.162671 -1.01133
0.041083 -0.163206 -1.0113
0.041624 -0.150711 -1.01221
0.0406062 -0.15025 -1.01225
0.0420661 -0.162744 -1.01233
0.041085 -0.163279 -1.01229
0.0406449 -0.15132 -1.01317
0.0406255 -0.150785 -1.01271
0.0420681 -0.162817 -1.01333
0.041087 -0.163352 -1.01329
0.0406468 -0.151392 -1.01417
0.0420701 -0.16289 -1.01433
0.041089 -0.163425 -1.01429
0.0406855 -0.152462 -1.01509
0.0406662 -0.151927 -1.01463
0.0416666 -0.151927 -1.01513
0.0420721 -0.162963 -1.01532
0.0410909 -0.163498 -1.01529
0.0420354 -0.161967 -1.0154
0.0407608 -0.154528 -1.01594
0.0407415 -0.153994 -1.01548
0.041742 -0.153993 -1.01598
0.0407048 -0.152997 -1.01555
0.0410736 -0.163036 -1.01582
0.0410562 -0.162575 -1.01636
0.0420374 -0.16204 -1.01639
0.0420007 -0.161043 -1.01647
0.0407995 -0.155598 -1.01687
0.0407801 -0.155063 -1.01641
0.0410389 -0.162113 -1.01689
0.0410022 -0.161116 -1.01697
0.0409848 -0.160654 -1.0175
0.041966 -0.160119 -1.01754
0.0419293 -0.159123 -1.01761
0.0418926 -0.158126 -1.01768
0.0408748 -0.157664 -1.01772
0.0408555 -0.157129 -1.01726
0.0408188 -0.156133 -1.01733
0.0409675 -0.160192 -1.01804
0.0409308 -0.159196 -1.01811
0.0408941 -0.158199 -1.01818
0.0419329 -0.186543 -1.02212
0.0419523 -0.187078 -1.02258
0.0429334 -0.186543 -1.02262
0.0428967 -0.185546 -1.02269
0.0418963 -0.185547 -1.02219
0.04286 -0.18455 -1.02277
0.0418596 -0.18455 -1.02227
0.0428234 -0.183553 -1.02284
0.0418229 -0.183553 -1.02234
0.0427867 -0.182556 -1.02291
0.0417862 -0.182557 -1.02241
0.04275 -0.18156 -1.02299
0.0417495 -0.18156 -1.02249
0.0427133 -0.180563 -1.02306
0.0417129 -0.180563 -1.02256
0.0426766 -0.179566 -1.02313
0.0416762 -0.179567 -1.02263
0.04264 -0.17857 -1.0232
0.0416395 -0.17857 -1.02271
0.0416222 -0.178108 -1.02324
0.0414928 -0.174583 -1.023
0.0415121 -0.175118 -1.02346
0.0424933 -0.174583 -1.0235
0.0414754 -0.174122 -1.02353
0.0420083 -0.18861 -1.02297
0.0420276 -0.189144 -1.02344
0.0430087 -0.188609 -1.02347
0.042972 -0.187613 -1.02355
0.0419716 -0.187613 -1.02305
0.0429354 -0.186616 -1.02362
0.0428987 -0.185619 -1.02369
0.042862 -0.184623 -1.02376
0.0428253 -0.183626 -1.02384
0.0427887 -0.182629 -1.02391
0.042752 -0.181633 -1.02398
0.0427153 -0.180636 -1.02406
0.0426786 -0.179639 -1.02413
0.0426419 -0.178643 -1.0242
0.0416048 -0.177646 -1.02378
0.0426053 -0.177646 -1.02428
0.0425686 -0.176649 -1.02435
0.0415681 -0.17665 -1.02385
0.0425319 -0.175653 -1.02442
0.0415314 -0.175653 -1.02392
0.0424952 -0.174656 -1.02449
0.0414581 -0.17366 -1.02407
0.0424586 -0.17366 -1.02457
0.0414407 -0.173198 -1.0246
0.0430107 -0.188682 -1.02447
0.0420296 -0.189217 -1.02443
0.042974 -0.187686 -1.02454
0.0429373 -0.186689 -1.02462
0.0429007 -0.185692 -1.02469
0.042864 -0.184696 -1.02476
0.0428273 -0.183699 -1.02483
0.0427906 -0.182702 -1.02491
0.0427539 -0.181706 -1.02498
0.0427173 -0.180709 -1.02505
0.0426806 -0.179712 -1.02513
0.0426439 -0.178716 -1.0252
0.0426072 -0.177719 -1.02527
0.0425706 -0.176722 -1.02535
0.0425339 -0.175726 -1.02542
0.0424972 -0.174729 -1.02549
0.0424605 -0.173732 -1.02556
0.0414427 -0.173271 -1.0256
0.0420122 -0.188756 -1.02497
0.0419949 -0.188294 -1.0255
0.042976 -0.187759 -1.02554
0.0429393 -0.186762 -1.02561
0.0429026 -0.185765 -1.02569
0.042866 -0.184769 -1.02576
0.0428293 -0.183772 -1.02583
0.0427926 -0.182775 -1.0259
0.0427559 -0.181779 -1.02598
0.0427192 -0.180782 -1.02605
0.0426826 -0.179785 -1.02612
0.0426459 -0.178789 -1.0262
0.0426092 -0.177792 -1.02627
0.0425725 -0.176795 -1.02634
0.0425359 -0.175799 -1.02642
0.0424992 -0.174802 -1.02649
0.0424625 -0.173805 -1.02656
0.0414447 -0.173344 -1.0266
0.0419775 -0.187832 -1.02604
0.0419408 -0.186835 -1.02611
0.0419041 -0.185839 -1.02618
0.0418675 -0.184842 -1.02626
0.0418308 -0.183845 -1.02633
0.0418134 -0.183383 -1.02687
0.0427946 -0.182848 -1.0269
0.0427579 -0.181852 -1.02698
0.0427212 -0.180855 -1.02705
0.0426845 -0.179858 -1.02712
0.0426479 -0.178862 -1.02719
0.0426112 -0.177865 -1.02727
0.0425745 -0.176868 -1.02734
0.0425378 -0.175872 -1.02741
0.0415007 -0.174875 -1.02699
0.04152 -0.17541 -1.02745
0.041464 -0.173879 -1.02706
0.0417961 -0.182922 -1.0274
0.0417594 -0.181925 -1.02747
0.0417227 -0.180928 -1.02755
0.041686 -0.179932 -1.02762
0.0416494 -0.178935 -1.02769
0.0416127 -0.177938 -1.02777
0.041576 -0.176942 -1.02784
0.0415393 -0.175945 -1.02791
0.0396686 -0.178959 -0.999619
0.0396879 -0.179493 -1.00008
0.040669 -0.178958 -1.00012
0.0406324 -0.177962 -1.00019
0.0396319 -0.177962 -0.999692
0.0396146 -0.1775 -1.00023
0.0383849 -0.144076 -1.00217
0.0384042 -0.14461 -1.00264
0.0393853 -0.144075 -1.00267
0.0393486 -0.143079 -1.00275
0.0383482 -0.143079 -1.00225
0.039312 -0.142082 -1.00282
0.0383115 -0.142082 -1.00232
0.0382941 -0.14162 -1.00286
0.0398906 -0.185011 -1.00018
0.0399099 -0.185546 -1.00064
0.0408911 -0.185011 -1.00068
0.0408544 -0.184015 -1.00075
0.0398539 -0.184015 -1.00025
0.0408177 -0.183018 -1.00082
0.0398173 -0.183018 -1.00032
0.040781 -0.182021 -1.0009
0.0397806 -0.182022 -1.0004
0.0407444 -0.181025 -1.00097
0.0397439 -0.181025 -1.00047
0.0407077 -0.180028 -1.00104
0.0397072 -0.180028 -1.00054
0.040671 -0.179031 -1.00112
0.0406343 -0.178035 -1.00119
0.0395972 -0.177038 -1.00076
0.0405977 -0.177038 -1.00126
0.040561 -0.176041 -1.00134
0.0395605 -0.176042 -1.00084
0.0405243 -0.175045 -1.00141
0.0395238 -0.175045 -1.00091
0.0404876 -0.174048 -1.00148
0.0394872 -0.174048 -1.00098
0.0404509 -0.173051 -1.00155
0.0394505 -0.173052 -1.00105
0.0394331 -0.17259 -1.00159
0.0384235 -0.145145 -1.0031
0.0384428 -0.14568 -1.00356
0.039424 -0.145145 -1.0036
0.0393873 -0.144148 -1.00367
0.0393506 -0.143152 -1.00374
0.0393139 -0.142155 -1.00382
0.0382768 -0.141159 -1.00339
0.0392772 -0.141158 -1.00389
0.0382594 -0.140697 -1.00393
0.0408931 -0.185084 -1.00168
0.0399119 -0.185619 -1.00164
0.0408564 -0.184088 -1.00175
0.0408197 -0.183091 -1.00182
0.040783 -0.182094 -1.00189
0.0407463 -0.181098 -1.00197
0.0405263 -0.175118 -1.00241
0.0404896 -0.174121 -1.00248
0.0404529 -0.173124 -1.00255
0.0394158 -0.172128 -1.00213
0.0404162 -0.172128 -1.00262
0.0403796 -0.171131 -1.0027
0.0393791 -0.171131 -1.0022
0.0393617 -0.170669 -1.00273
0.0388656 -0.157178 -1.00322
0.0388849 -0.157713 -1.00368
0.0398661 -0.157178 -1.00372
0.0398294 -0.156181 -1.00379
0.0388289 -0.156181 -1.00329
0.0397927 -0.155184 -1.00387
0.0387923 -0.155185 -1.00337
0.0387749 -0.154723 -1.0039
0.0384622 -0.146215 -1.00402
0.0384815 -0.14675 -1.00449
0.0394626 -0.146215 -1.00452
0.0394259 -0.145218 -1.0046
0.0393893 -0.144221 -1.00467
0.0393526 -0.143225 -1.00474
0.0393159 -0.142228 -1.00481
0.0392792 -0.141231 -1.00489
0.0382614 -0.14077 -1.00492
0.0398946 -0.185157 -1.00217
0.0398772 -0.184696 -1.00271
0.0408583 -0.184161 -1.00275
0.0408217 -0.183164 -1.00282
0.040785 -0.182167 -1.00289
0.0407483 -0.181171 -1.00296
0.0407116 -0.180174 -1.00304
0.0405282 -0.175191 -1.0034
0.0404916 -0.174194 -1.00348
0.0404549 -0.173197 -1.00355
0.0404182 -0.172201 -1.00362
0.0403815 -0.171204 -1.00369
0.0393637 -0.170742 -1.00373
0.0389409 -0.159244 -1.00407
0.0389603 -0.159779 -1.00453
0.0399414 -0.159244 -1.00457
0.0389043 -0.158248 -1.00414
0.039758 -0.154261 -1.00494
0.0387575 -0.154261 -1.00444
0.0397213 -0.153264 -1.00501
0.0387209 -0.153264 -1.00451
0.0396846 -0.152267 -1.00508
0.0386842 -0.152268 -1.00458
0.0386668 -0.151806 -1.00512
0.0385008 -0.147284 -1.00495
0.0385201 -0.147819 -1.00541
0.0395013 -0.147284 -1.00545
0.0394646 -0.146288 -1.00552
0.0394279 -0.145291 -1.00559
0.0393912 -0.144294 -1.00567
0.0393545 -0.143298 -1.00574
0.0393179 -0.142301 -1.00581
0.0392812 -0.141304 -1.00588
0.0382634 -0.140843 -1.00592
0.0398599 -0.184234 -1.00324
0.0398232 -0.183237 -1.00332
0.0398058 -0.182775 -1.00385
0.040787 -0.18224 -1.00389
0.0407503 -0.181244 -1.00396
0.0407136 -0.180247 -1.00404
0.0406769 -0.17925 -1.00411
0.0406403 -0.178254 -1.00418
0.0406036 -0.177257 -1.00425
0.0405669 -0.17626 -1.00433
0.0405302 -0.175264 -1.0044
0.0404935 -0.174267 -1.00447
0.0404569 -0.17327 -1.00455
0.0404202 -0.172274 -1.00462
0.039383 -0.171277 -1.00419
0.0394024 -0.171812 -1.00465
0.0390163 -0.161311 -1.00492
0.0390356 -0.161845 -1.00538
0.0400167 -0.16131 -1.00542
0.0389796 -0.160314 -1.005
0.0396866 -0.15234 -1.00608
0.0386495 -0.151344 -1.00565
0.0396499 -0.151344 -1.00615
0.0396133 -0.150347 -1.00622
0.0386128 -0.150347 -1.00573
0.0395766 -0.14935 -1.0063
0.0385761 -0.149351 -1.0058
0.0395399 -0.148354 -1.00637
0.0385394 -0.148354 -1.00587
0.0395032 -0.147357 -1.00644
0.0394666 -0.14636 -1.00652
0.0394299 -0.145364 -1.00659
0.0393932 -0.144367 -1.00666
0.0393565 -0.143371 -1.00674
0.0393198 -0.142374 -1.00681
0.0392832 -0.141377 -1.00688
0.0382653 -0.140916 -1.00692
0.0397885 -0.182313 -1.00439
0.0397518 -0.181317 -1.00446
0.0397344 -0.180855 -1.005
0.0407156 -0.18032 -1.00503
0.0406789 -0.179323 -1.00511
0.0406422 -0.178327 -1.00518
0.0406055 -0.17733 -1.00525
0.0405689 -0.176333 -1.00532
0.0405322 -0.175337 -1.0054
0.0404955 -0.17434 -1.00547
0.0394584 -0.173343 -1.00504
0.0394777 -0.173878 -1.00551
0.0394217 -0.172347 -1.00512
0.0390549 -0.16238 -1.00585
0.0390742 -0.162915 -1.00631
0.0400554 -0.16238 -1.00635
0.0400187 -0.161383 -1.00642
0.0396519 -0.151417 -1.00715
0.0396152 -0.15042 -1.00722
0.0395786 -0.149423 -1.0073
0.0395419 -0.148427 -1.00737
0.0395052 -0.14743 -1.00744
0.0394685 -0.146433 -1.00751
0.0394318 -0.145437 -1.00759
0.0393952 -0.14444 -1.00766
0.0393585 -0.143443 -1.00773
0.0393218 -0.142447 -1.00781
0.0392851 -0.14145 -1.00788
0.0382673 -0.140989 -1.00791
0.0397171 -0.180393 -1.00553
0.0396804 -0.179396 -1.0056
0.0396437 -0.1784 -1.00568
0.0396071 -0.177403 -1.00575
0.0395704 -0.176406 -1.00582
0.0395337 -0.17541 -1.0059
0.039497 -0.174413 -1.00597
0.0390936 -0.16345 -1.00677
0.0391129 -0.163985 -1.00723
0.040094 -0.16345 -1.00727
0.0400573 -0.162453 -1.00734
0.0396172 -0.150493 -1.00822
0.0395805 -0.149496 -1.00829
0.0395439 -0.1485 -1.00837
0.0395072 -0.147503 -1.00844
0.0394705 -0.146506 -1.00851
0.0394338 -0.14551 -1.00858
0.0393971 -0.144513 -1.00866
0.0393605 -0.143516 -1.00873
0.0393238 -0.14252 -1.0088
0.0392871 -0.141523 -1.00888
0.0382693 -0.141062 -1.00891
0.040096 -0.163523 -1.00827
0.0391149 -0.164058 -1.00823
0.0400593 -0.162526 -1.00834
0.0396192 -0.150566 -1.00922
0.0395825 -0.149569 -1.00929
0.0395458 -0.148573 -1.00936
0.0395091 -0.147576 -1.00944
0.0394725 -0.146579 -1.00951
0.0394358 -0.145583 -1.00958
0.0393991 -0.144586 -1.00965
0.0393624 -0.143589 -1.00973
0.0393258 -0.142593 -1.0098
0.0382886 -0.141596 -1.00937
0.0383079 -0.142131 -1.00984
0.040098 -0.163596 -1.00927
0.0391168 -0.164131 -1.00923
0.0395845 -0.149642 -1.01029
0.0395478 -0.148646 -1.01036
0.0395111 -0.147649 -1.01043
0.0394744 -0.146652 -1.01051
0.0394378 -0.145656 -1.01058
0.0394011 -0.144659 -1.01065
0.0393644 -0.143662 -1.01073
0.0393277 -0.142666 -1.0108
0.0383099 -0.142204 -1.01083
0.0391362 -0.164665 -1.00969
0.0391555 -0.1652 -1.01015
0.0401366 -0.164665 -1.01019
0.0400999 -0.163669 -1.01026
0.0395864 -0.149715 -1.01128
0.0395498 -0.148719 -1.01136
0.0395131 -0.147722 -1.01143
0.0394764 -0.146725 -1.0115
0.0394397 -0.145729 -1.01158
0.0394031 -0.144732 -1.01165
0.0393664 -0.143735 -1.01172
0.0383292 -0.142739 -1.0113
0.0383486 -0.143274 -1.01176
0.0401386 -0.164738 -1.01119
0.0391575 -0.165273 -1.01115
0.0401019 -0.163741 -1.01126
0.0395884 -0.149788 -1.01228
0.0395517 -0.148792 -1.01235
0.0385146 -0.147795 -1.01193
0.0385339 -0.14833 -1.01239
0.0384779 -0.146799 -1.012
0.0384412 -0.145802 -1.01207
0.0384046 -0.144805 -1.01215
0.0383679 -0.143809 -1.01222
0.0401406 -0.164811 -1.01218
0.0391594 -0.165346 -1.01215
0.0401039 -0.163814 -1.01226
0.0396271 -0.150858 -1.01321
0.0386093 -0.150396 -1.01324
0.0385899 -0.149861 -1.01278
0.0385532 -0.148865 -1.01285
0.0401425 -0.164884 -1.01318
0.0391614 -0.165419 -1.01314
0.0401058 -0.163887 -1.01325
0.0386479 -0.151466 -1.01417
0.0386286 -0.150931 -1.0137
0.0391807 -0.165954 -1.01361
0.0392 -0.166489 -1.01407
0.0401812 -0.165954 -1.01411
0.0401445 -0.164957 -1.01418
0.0401078 -0.16396 -1.01425
0.0387232 -0.153532 -1.01502
0.0387039 -0.152997 -1.01456
0.0397044 -0.152997 -1.01505
0.0386672 -0.152001 -1.01463
0.0391827 -0.166027 -1.0146
0.0391653 -0.165565 -1.01514
0.0401465 -0.16503 -1.01518
0.0401098 -0.164033 -1.01525
0.0387619 -0.154602 -1.01594
0.0387426 -0.154067 -1.01548
0.039148 -0.165103 -1.01567
0.0391306 -0.164641 -1.01621
0.0401118 -0.164106 -1.01625
0.0400751 -0.16311 -1.01632
0.0388372 -0.156668 -1.01679
0.0388179 -0.156133 -1.01633
0.0398183 -0.156133 -1.01683
0.0387812 -0.155137 -1.0164
0.0391133 -0.16418 -1.01674
0.0390766 -0.163183 -1.01682
0.0390399 -0.162186 -1.01689
0.0390226 -0.161724 -1.01743
0.0400037 -0.161189 -1.01746
0.0389125 -0.158734 -1.01764
0.0388932 -0.1582 -1.01718
0.0398937 -0.158199 -1.01768