<VTKFile type="UnstructuredGrid" version="0.1" byte_order="BigEndian">
  <UnstructuredGrid>
    <Piece NumberOfPoints="13082" NumberOfCells="26164">
      <PointData>
        <DataArray type="Float64" Name="position" NumberOfComponents="3" format="ascii">
0.0673954 -0.15612 -1.01213
0.0674151 -0.156655 -1.01259
0.0683973 -0.156122 -1.01263
0.0683626 -0.155125 -1.0127
0.0673607 -0.155123 -1.01221
0.0683279 -0.154128 -1.01278
0.067326 -0.154127 -1.01228
0.067311 -0.153665 -1.01281
0.0674001 -0.156193 -1.01313
0.0673654 -0.155197 -1.0132
0.0673307 -0.1542 -1.01328
0.0653381 -0.154828 -1.00722
0.0653578 -0.155363 -1.00769
0.06634 -0.154829 -1.00772
0.0653231 -0.154366 -1.00776
0.0653775 -0.155898 -1.00815
0.0653972 -0.156433 -1.00861
0.0663794 -0.155899 -1.00864
0.0663447 -0.154902 -1.00872
0.0653081 -0.153904 -1.00829
0.06631 -0.153906 -1.00879
0.0652931 -0.153442 -1.00883
0.0663841 -0.155972 -1.00964
0.0654019 -0.156506 -1.00961
0.0663494 -0.154976 -1.00972
0.0663147 -0.153979 -1.00979
0.0652978 -0.153516 -1.00983
0.0663888 -0.156045 -1.01064
0.0654066 -0.156579 -1.0106
0.0663541 -0.155049 -1.01071
0.0663194 -0.154052 -1.01079
0.0653025 -0.153589 -1.01082
0.0663935 -0.156119 -1.01164
0.0654113 -0.156652 -1.0116
0.0663588 -0.155122 -1.01171
0.0663241 -0.154125 -1.01178
0.0653072 -0.153662 -1.01182
0.065416 -0.156725 -1.0126
0.0653119 -0.153735 -1.01282
0.065401 -0.156263 -1.01313
0.065386 -0.155801 -1.01367
0.0663682 -0.155268 -1.0137
0.0653513 -0.154805 -1.01374
0.0653316 -0.15427 -1.01328
0.065371 -0.15534 -1.01421
0.0633249 -0.154678 -1.00424
0.0633446 -0.155213 -1.0047
0.0643268 -0.15468 -1.00473
0.0633099 -0.154216 -1.00477
0.0643315 -0.154753 -1.00573
0.0633493 -0.155286 -1.0057
0.0633146 -0.15429 -1.00577
0.063369 -0.155821 -1.00616
0.0633887 -0.156356 -1.00662
0.0643709 -0.155823 -1.00665
0.0643362 -0.154826 -1.00673
0.0632996 -0.153828 -1.0063
0.0643015 -0.153829 -1.0068
0.0632846 -0.153366 -1.00684
0.0643756 -0.155896 -1.00765
0.0633934 -0.156429 -1.00762
0.0643062 -0.153903 -1.0078
0.0632893 -0.153439 -1.00784
0.0633981 -0.156502 -1.00861
0.063294 -0.153512 -1.00883
0.0634028 -0.156576 -1.00961
0.0632987 -0.153585 -1.00983
0.0634075 -0.156649 -1.01061
0.0633034 -0.153659 -1.01083
0.0634122 -0.156722 -1.01161
0.0633081 -0.153732 -1.01183
0.0634169 -0.156795 -1.0126
0.0633128 -0.153805 -1.01282
0.0634019 -0.156333 -1.01314
0.0633869 -0.155871 -1.01367
0.0633522 -0.154875 -1.01375
0.0633325 -0.15434 -1.01329
0.0633719 -0.15541 -1.01421
0.0613259 -0.154748 -1.00424
0.0613456 -0.155283 -1.0047
0.062293 -0.153753 -1.00481
0.0612912 -0.153751 -1.00431
0.0612762 -0.15329 -1.00485
0.0613653 -0.155818 -1.00516
0.061385 -0.156353 -1.00563
0.0623671 -0.15582 -1.00566
0.0622977 -0.153826 -1.00581
0.0612809 -0.153363 -1.00585
0.0613897 -0.156426 -1.00662
0.0612856 -0.153436 -1.00684
0.0613944 -0.156499 -1.00762
0.0612903 -0.153509 -1.00784
0.0613991 -0.156572 -1.00862
0.0622771 -0.153049 -1.00887
0.0612753 -0.153047 -1.00838
0.0612603 -0.152586 -1.00891
0.0614038 -0.156645 -1.00962
0.0622818 -0.153122 -1.00987
0.061265 -0.152659 -1.00991
0.0614085 -0.156719 -1.01061
0.0622865 -0.153195 -1.01087
0.0612697 -0.152732 -1.01091
0.0614132 -0.156792 -1.01161
0.0622912 -0.153268 -1.01186
0.0612744 -0.152805 -1.0119
0.0614329 -0.157327 -1.01207
0.0614526 -0.157862 -1.01253
0.0624348 -0.157328 -1.01257
0.0622959 -0.153341 -1.01286
0.0612791 -0.152878 -1.0129
0.0614376 -0.1574 -1.01307
0.0614226 -0.156938 -1.01361
0.0624048 -0.156405 -1.01364
0.0623354 -0.154411 -1.01379
0.0613185 -0.153948 -1.01382
0.0612988 -0.153413 -1.01336
0.0614076 -0.156476 -1.01414
0.0613729 -0.15548 -1.01421
0.0613382 -0.154483 -1.01429
0.0593615 -0.155815 -1.00417
0.0593812 -0.15635 -1.00463
0.0603634 -0.155816 -1.00467
0.0593268 -0.154818 -1.00424
0.0593118 -0.154356 -1.00478
0.060294 -0.153823 -1.00481
0.0593859 -0.156423 -1.00563
0.0592968 -0.153895 -1.00532
0.0592818 -0.153433 -1.00585
0.0594056 -0.156958 -1.00609
0.0594253 -0.157493 -1.00656
0.0604075 -0.156959 -1.00659
0.0602687 -0.152973 -1.00688
0.0592668 -0.152971 -1.00639
0.0592518 -0.152509 -1.00692
0.0604122 -0.157033 -1.00759
0.05943 -0.157566 -1.00755
0.0602734 -0.153046 -1.00788
0.0592565 -0.152582 -1.00792
0.0604169 -0.157106 -1.00858
0.0594347 -0.157639 -1.00855
0.0592612 -0.152655 -1.00892
0.0604216 -0.157179 -1.00958
0.0594394 -0.157712 -1.00955
0.0592659 -0.152729 -1.00991
0.0604263 -0.157252 -1.01058
0.0594441 -0.157785 -1.01054
0.0592706 -0.152802 -1.01091
0.060431 -0.157325 -1.01158
0.0594488 -0.157858 -1.01154
0.0592753 -0.152875 -1.01191
0.0604357 -0.157398 -1.01257
0.0594338 -0.157397 -1.01208
0.0594188 -0.156935 -1.01261
0.05928 -0.152948 -1.01291
0.0594235 -0.157008 -1.01361
0.0593194 -0.154018 -1.01383
0.0592997 -0.153483 -1.01337
0.0594085 -0.156546 -1.01414
0.0593738 -0.155549 -1.01422
0.0593391 -0.154553 -1.01429
0.0573971 -0.156881 -1.0041
0.0574168 -0.157416 -1.00456
0.058399 -0.156883 -1.0046
0.0573624 -0.155885 -1.00418
0.0573277 -0.154888 -1.00425
0.0573127 -0.154426 -1.00478
0.0584037 -0.156956 -1.0056
0.0574215 -0.157489 -1.00556
0.0572977 -0.153964 -1.00532
0.0572827 -0.153503 -1.00586
0.0574262 -0.157563 -1.00656
0.0582696 -0.153042 -1.00689
0.0572874 -0.153576 -1.00685
0.0574459 -0.158098 -1.00702
0.0574656 -0.158632 -1.00748
0.0584478 -0.158099 -1.00752
0.0572724 -0.153114 -1.00739
0.0572574 -0.152652 -1.00792
0.0584525 -0.158172 -1.00852
0.0574703 -0.158706 -1.00848
0.0572621 -0.152725 -1.00892
0.0584572 -0.158245 -1.00951
0.057475 -0.158779 -1.00948
0.0572668 -0.152798 -1.00992
0.0584619 -0.158319 -1.01051
0.0574797 -0.158852 -1.01048
0.0573062 -0.153868 -1.01084
0.0572865 -0.153333 -1.01038
0.0582884 -0.153335 -1.01088
0.0584666 -0.158392 -1.01151
0.0574844 -0.158925 -1.01147
0.0582931 -0.153408 -1.01187
0.0573109 -0.153941 -1.01184
0.0584713 -0.158465 -1.0125
0.0574891 -0.158998 -1.01247
0.0584366 -0.157468 -1.01258
0.0582978 -0.153481 -1.01287
0.0573156 -0.154015 -1.01284
0.0574741 -0.158536 -1.01301
0.0574591 -0.158075 -1.01354
0.0584413 -0.157541 -1.01357
0.057355 -0.155084 -1.01376
0.0573353 -0.15455 -1.0133
0.0583372 -0.154551 -1.01379
0.0574441 -0.157613 -1.01408
0.0574291 -0.157151 -1.01461
0.0584113 -0.156618 -1.01465
0.0573944 -0.156154 -1.01468
0.0573747 -0.155619 -1.01422
0.0574141 -0.156689 -1.01515
0.0553981 -0.156951 -1.00411
0.0554178 -0.157486 -1.00457
0.0553634 -0.155955 -1.00418
0.0553484 -0.155493 -1.00472
0.0563305 -0.15496 -1.00475
0.0554375 -0.158021 -1.00503
0.0554572 -0.158556 -1.00549
0.0564393 -0.158023 -1.00553
0.0553333 -0.155031 -1.00525
0.0553183 -0.154569 -1.00579
0.0563005 -0.154036 -1.00582
0.056444 -0.158096 -1.00652
0.0554619 -0.158629 -1.00649
0.0553033 -0.154107 -1.00632
0.0552883 -0.153646 -1.00686
0.0554666 -0.158702 -1.00749
0.0552733 -0.153184 -1.00739
0.0552583 -0.152722 -1.00793
0.0554713 -0.158776 -1.00848
0.055263 -0.152795 -1.00892
0.055476 -0.158849 -1.00948
0.0553025 -0.153865 -1.00985
0.0552827 -0.15333 -1.00939
0.0562846 -0.153332 -1.00988
0.0554807 -0.158922 -1.01048
0.0553072 -0.153938 -1.01085
0.0554854 -0.158995 -1.01148
0.0553119 -0.154011 -1.01184
0.0554901 -0.159068 -1.01247
0.0553166 -0.154085 -1.01284
0.0554751 -0.158606 -1.01301
0.0554601 -0.158144 -1.01354
0.055356 -0.155154 -1.01376
0.0553363 -0.154619 -1.0133
0.056447 -0.157684 -1.01458
0.0554648 -0.158218 -1.01454
0.0553954 -0.156224 -1.01469
0.0553757 -0.155689 -1.01423
0.0554498 -0.157756 -1.01508
0.0554151 -0.156759 -1.01515
0.0533943 -0.156948 -1.00311
0.053414 -0.157483 -1.00358
0.0543962 -0.15695 -1.00361
0.0533793 -0.156486 -1.00365
0.0534337 -0.158018 -1.00404
0.0534534 -0.158553 -1.0045
0.0544356 -0.15802 -1.00453
0.0533643 -0.156025 -1.00418
0.0533493 -0.155563 -1.00472
0.0534581 -0.158626 -1.0055
0.0533343 -0.155101 -1.00526
0.0533193 -0.154639 -1.00579
0.0534778 -0.159161 -1.00596
0.0534975 -0.159696 -1.00642
0.0544797 -0.159163 -1.00646
0.0533043 -0.154177 -1.00633
0.0532893 -0.153716 -1.00686
0.0544844 -0.159236 -1.00745
0.0535022 -0.159769 -1.00742
0.0542762 -0.153255 -1.00789
0.053294 -0.153789 -1.00786
0.0544891 -0.159309 -1.00845
0.0535069 -0.159842 -1.00842
0.053279 -0.153327 -1.00839
0.053264 -0.152865 -1.00893
0.0544938 -0.159382 -1.00945
0.0535116 -0.159915 -1.00941
0.0542856 -0.153402 -1.00989
0.0532687 -0.152938 -1.00993
0.0544985 -0.159455 -1.01045
0.0535163 -0.159988 -1.01041
0.0533081 -0.154008 -1.01085
0.0532884 -0.153473 -1.01039
0.0545032 -0.159528 -1.01144
0.053521 -0.160062 -1.01141
0.0533128 -0.154081 -1.01185
0.053506 -0.1596 -1.01194
0.053491 -0.159138 -1.01248
0.0533175 -0.154154 -1.01284
0.0544779 -0.158678 -1.01351
0.0534957 -0.159211 -1.01348
0.0533569 -0.155224 -1.01377
0.0533372 -0.154689 -1.01331
0.0534807 -0.158749 -1.01401
0.0534657 -0.158288 -1.01455
0.0543785 -0.155761 -1.01473
0.0533616 -0.155297 -1.01477
0.0534507 -0.157826 -1.01508
0.053416 -0.156829 -1.01515
0.0533813 -0.155832 -1.01523
0.0513952 -0.157018 -1.00312
0.0514149 -0.157553 -1.00358
0.0513802 -0.156556 -1.00365
0.0514346 -0.158088 -1.00404
0.0514543 -0.158623 -1.0045
0.0513652 -0.156094 -1.00419
0.0513502 -0.155633 -1.00472
0.051474 -0.159158 -1.00497
0.0514937 -0.159693 -1.00543
0.0524759 -0.159159 -1.00546
0.0513352 -0.155171 -1.00526
0.0513202 -0.154709 -1.00579
0.0514984 -0.159766 -1.00643
0.0513052 -0.154247 -1.00633
0.0512902 -0.153786 -1.00687
0.0515031 -0.159839 -1.00742
0.0512949 -0.153859 -1.00786
0.0515078 -0.159912 -1.00842
0.0512799 -0.153397 -1.0084
0.0512649 -0.152935 -1.00893
0.0515125 -0.159985 -1.00942
0.0512696 -0.153008 -1.00993
0.0515172 -0.160058 -1.01041
0.0522912 -0.153545 -1.01089
0.0512743 -0.153081 -1.01093
0.0515219 -0.160131 -1.01141
0.0513137 -0.154151 -1.01185
0.051294 -0.153616 -1.01139
0.0525088 -0.159671 -1.01244
0.0515266 -0.160205 -1.01241
0.0513184 -0.154224 -1.01285
0.0525135 -0.159744 -1.01344
0.0515313 -0.160278 -1.01341
0.05234 -0.154761 -1.01381
0.0513231 -0.154297 -1.01385
0.0515163 -0.159816 -1.01394
0.0515013 -0.159354 -1.01448
0.0524835 -0.158821 -1.01451
0.0513625 -0.155367 -1.01477
0.0513428 -0.154832 -1.01431
0.0514863 -0.158892 -1.01501
0.0514713 -0.158431 -1.01555
0.0524535 -0.157897 -1.01558
0.0524188 -0.156901 -1.01566
0.0514019 -0.156437 -1.01569
0.0513822 -0.155902 -1.01523
0.0514563 -0.157969 -1.01608
0.0514216 -0.156972 -1.01616
0.0493961 -0.157088 -1.00312
0.0494158 -0.157623 -1.00358
0.0493811 -0.156626 -1.00366
0.0494355 -0.158158 -1.00405
0.0494553 -0.158693 -1.00451
0.0493661 -0.156164 -1.00419
0.0493511 -0.155703 -1.00473
0.049475 -0.159228 -1.00497
0.0494947 -0.159763 -1.00543
0.0493361 -0.155241 -1.00526
0.0493211 -0.154779 -1.0058
0.0494994 -0.159836 -1.00643
0.0493061 -0.154317 -1.00633
0.0492911 -0.153855 -1.00687
0.0495041 -0.159909 -1.00743
0.0492958 -0.153929 -1.00787
0.0495238 -0.160444 -1.00789
0.0495435 -0.160979 -1.00835
0.0505256 -0.160445 -1.00839
0.0492808 -0.153467 -1.0084
0.0492658 -0.153005 -1.00894
0.0505304 -0.160519 -1.00938
0.0495482 -0.161052 -1.00935
0.0492705 -0.153078 -1.00993
0.0505351 -0.160592 -1.01038
0.0495529 -0.161125 -1.01035
0.0492752 -0.153151 -1.01093
0.0505398 -0.160665 -1.01138
0.0495576 -0.161198 -1.01134
0.0502968 -0.153688 -1.01189
0.0492799 -0.153224 -1.01193
0.0505445 -0.160738 -1.01238
0.0495623 -0.161271 -1.01234
0.0503015 -0.153761 -1.01289
0.0492846 -0.153298 -1.01293
0.0495473 -0.160809 -1.01288
0.0495323 -0.160348 -1.01341
0.0503062 -0.153834 -1.01389
0.0492893 -0.153371 -1.01392
0.0505192 -0.159887 -1.01444
0.049537 -0.160421 -1.01441
0.0503456 -0.154904 -1.01481
0.0493288 -0.154441 -1.01485
0.0493091 -0.153906 -1.01439
0.049522 -0.159959 -1.01494
0.049507 -0.159497 -1.01548
0.0504892 -0.158964 -1.01551
0.050385 -0.155974 -1.01573
0.0493682 -0.15551 -1.01577
0.0493485 -0.154975 -1.01531
0.049492 -0.159035 -1.01601
0.0494573 -0.158039 -1.01609
0.0494226 -0.157042 -1.01616
0.0493879 -0.156045 -1.01623
0.048399 -0.157159 -1.00362
0.0474365 -0.158228 -1.00405
0.0474562 -0.158763 -1.00451
0.0474018 -0.157231 -1.00412
0.0473671 -0.156234 -1.0042
0.0473521 -0.155773 -1.00473
0.0474759 -0.159298 -1.00497
0.0474956 -0.159832 -1.00544
0.0473371 -0.155311 -1.00527
0.0473221 -0.154849 -1.0058
0.0475003 -0.159906 -1.00643
0.0473071 -0.154387 -1.00634
0.0472921 -0.153925 -1.00687
0.04752 -0.160441 -1.0069
0.0475397 -0.160975 -1.00736
0.0485219 -0.160442 -1.00739
0.048279 -0.153465 -1.00791
0.0472771 -0.153464 -1.00741
0.0472621 -0.153002 -1.00794
0.0475444 -0.161049 -1.00836
0.0472668 -0.153075 -1.00894
0.0475491 -0.161122 -1.00935
0.0482537 -0.152615 -1.00997
0.0472518 -0.152613 -1.00948
0.0472368 -0.152151 -1.01001
0.0475538 -0.161195 -1.01035
0.0482584 -0.152688 -1.01097
0.0472415 -0.152224 -1.01101
0.0475585 -0.161268 -1.01135
0.0482631 -0.152761 -1.01197
0.0472462 -0.152298 -1.01201
0.0475632 -0.161341 -1.01234
0.0482678 -0.152834 -1.01297
0.0472509 -0.152371 -1.013
0.0485501 -0.160881 -1.01338
0.0475679 -0.161414 -1.01334
0.0482725 -0.152907 -1.01396
0.0472556 -0.152444 -1.014
0.0485548 -0.160954 -1.01437
0.0475726 -0.161487 -1.01434
0.0483119 -0.153977 -1.01489
0.047295 -0.153514 -1.01493
0.0472753 -0.152979 -1.01446
0.0475576 -0.161026 -1.01487
0.0475426 -0.160564 -1.01541
0.0485248 -0.160031 -1.01544
0.0483513 -0.155047 -1.01581
0.0473344 -0.154584 -1.01585
0.0473147 -0.154049 -1.01539
0.0475276 -0.160102 -1.01595
0.0475126 -0.15964 -1.01648
0.0484948 -0.159107 -1.01652
0.0484601 -0.15811 -1.01659
0.0484254 -0.157114 -1.01666
0.0474085 -0.15665 -1.0167
0.0473888 -0.156115 -1.01624
0.0473541 -0.155119 -1.01631
0.0474976 -0.159178 -1.01702
0.0474629 -0.158182 -1.01709
0.0474282 -0.157185 -1.01716
0.0454374 -0.158298 -1.00406
0.0454571 -0.158833 -1.00452
0.0454027 -0.157301 -1.00413
0.045368 -0.156304 -1.0042
0.045353 -0.155842 -1.00474
0.0454768 -0.159367 -1.00498
0.0454965 -0.159902 -1.00544
0.045338 -0.155381 -1.00527
0.0463052 -0.154386 -1.00584
0.0453033 -0.154384 -1.00535
0.0452883 -0.153922 -1.00588
0.0455162 -0.160437 -1.0059
0.0455359 -0.160972 -1.00637
0.0465181 -0.160439 -1.0064
0.0462752 -0.153462 -1.00691
0.0452733 -0.15346 -1.00642
0.0452583 -0.152999 -1.00695
0.0455406 -0.161045 -1.00736
0.045263 -0.153072 -1.00795
0.0455603 -0.16158 -1.00782
0.04558 -0.162115 -1.00829
0.0465622 -0.161582 -1.00832
0.0462499 -0.152612 -1.00898
0.045248 -0.15261 -1.00848
0.045233 -0.152148 -1.00902
0.0465669 -0.161655 -1.00932
0.0455847 -0.162188 -1.00928
0.0452377 -0.152221 -1.01002
0.0465716 -0.161728 -1.01032
0.0455894 -0.162262 -1.01028
0.0452424 -0.152294 -1.01101
0.0465763 -0.161801 -1.01131
0.0455941 -0.162335 -1.01128
0.0462293 -0.151834 -1.01205
0.0452274 -0.151833 -1.01155
0.0452124 -0.151371 -1.01208
0.046581 -0.161874 -1.01231
0.0455988 -0.162408 -1.01228
0.046234 -0.151907 -1.01304
0.0452171 -0.151444 -1.01308
0.0465857 -0.161948 -1.01331
0.0456035 -0.162481 -1.01327
0.0462387 -0.151981 -1.01404
0.0452218 -0.151517 -1.01408
0.0465904 -0.162021 -1.01431
0.0456082 -0.162554 -1.01427
0.0462781 -0.15305 -1.01496
0.0462434 -0.152054 -1.01504
0.0452265 -0.15159 -1.01508
0.0455932 -0.162092 -1.01481
0.0455782 -0.16163 -1.01534
0.0465604 -0.161097 -1.01538
0.0463175 -0.15412 -1.01589
0.0453006 -0.153657 -1.01593
0.0452809 -0.153122 -1.01547
0.0452462 -0.152125 -1.01554
0.0455632 -0.161169 -1.01588
0.0455482 -0.160707 -1.01641
0.0465304 -0.160174 -1.01645
0.0463916 -0.156187 -1.01674
0.0453747 -0.155723 -1.01678
0.045355 -0.155188 -1.01632
0.0453203 -0.154192 -1.01639
0.0455332 -0.160245 -1.01695
0.0454985 -0.159248 -1.01702
0.0454638 -0.158252 -1.01709
0.0454291 -0.157255 -1.01717
0.0453944 -0.156258 -1.01724
0.0441971 -0.180222 -1.00145
0.0442168 -0.180757 -1.00191
0.045199 -0.180224 -1.00195
0.0451643 -0.179227 -1.00202
0.0441624 -0.179225 -1.00152
0.0451296 -0.17823 -1.00209
0.0441277 -0.178229 -1.0016
0.0450949 -0.177234 -1.00217
0.044093 -0.177232 -1.00167
0.0450602 -0.176237 -1.00224
0.0440583 -0.176235 -1.00174
0.0440433 -0.175773 -1.00228
0.0442018 -0.180295 -1.00245
0.0441868 -0.179833 -1.00298
0.045169 -0.1793 -1.00302
0.0451343 -0.178303 -1.00309
0.0450996 -0.177307 -1.00316
0.0450649 -0.17631 -1.00324
0.044048 -0.175847 -1.00328
0.0434383 -0.158368 -1.00406
0.043458 -0.158902 -1.00452
0.0434036 -0.157371 -1.00413
0.0433689 -0.156374 -1.00421
0.0443361 -0.155379 -1.00478
0.0433342 -0.155377 -1.00428
0.0433192 -0.154916 -1.00481
0.0441718 -0.179372 -1.00352
0.0441371 -0.178375 -1.00359
0.0441024 -0.177378 -1.00366
0.0440677 -0.176381 -1.00374
0.0435124 -0.160434 -1.00491
0.0435322 -0.160969 -1.00537
0.0445143 -0.160436 -1.00541
0.0434777 -0.159437 -1.00498
0.0433042 -0.154454 -1.00535
0.0442714 -0.153459 -1.00592
0.0432695 -0.153457 -1.00542
0.0432545 -0.152995 -1.00596
0.0435369 -0.161042 -1.00637
0.0442414 -0.152535 -1.00699
0.0432395 -0.152534 -1.00649
0.0432245 -0.152072 -1.00703
0.0435566 -0.161577 -1.00683
0.0435763 -0.162112 -1.00729
0.0445584 -0.161579 -1.00733
0.0442461 -0.152608 -1.00799
0.0432095 -0.15161 -1.00756
0.0442114 -0.151612 -1.00806
0.0431945 -0.151148 -1.0081
0.043581 -0.162185 -1.00829
0.0442161 -0.151685 -1.00906
0.0431992 -0.151221 -1.0091
0.0436007 -0.16272 -1.00875
0.0436204 -0.163255 -1.00922
0.0446025 -0.162722 -1.00925
0.0442208 -0.151758 -1.01006
0.0431842 -0.15076 -1.00963
0.0441861 -0.150761 -1.01013
0.0431692 -0.150298 -1.01017
0.0446073 -0.162795 -1.01025
0.0436251 -0.163328 -1.01021
0.0442255 -0.151831 -1.01105
0.0441908 -0.150834 -1.01113
0.0431739 -0.150371 -1.01116
0.044612 -0.162868 -1.01124
0.0436298 -0.163401 -1.01121
0.0441955 -0.150907 -1.01212
0.0431786 -0.150444 -1.01216
0.0446167 -0.162941 -1.01224
0.0436345 -0.163474 -1.01221
0.043218 -0.151514 -1.01309
0.0431983 -0.150979 -1.01262
0.0446214 -0.163014 -1.01324
0.0436392 -0.163548 -1.0132
0.0432227 -0.151587 -1.01408
0.0446261 -0.163087 -1.01424
0.0436439 -0.163621 -1.0142
0.0432621 -0.152657 -1.01501
0.0432424 -0.152122 -1.01455
0.0442443 -0.152124 -1.01504
0.0446308 -0.16316 -1.01523
0.0436486 -0.163694 -1.0152
0.0445961 -0.162164 -1.01531
0.0433362 -0.154723 -1.01586
0.0433165 -0.154189 -1.0154
0.0443184 -0.15419 -1.01589
0.0432818 -0.153192 -1.01547
0.0436336 -0.163232 -1.01573
0.0436186 -0.16277 -1.01627
0.0446008 -0.162237 -1.0163
0.0445661 -0.16124 -1.01638
0.0433757 -0.155793 -1.01678
0.0433559 -0.155258 -1.01632
0.0436036 -0.162308 -1.0168
0.0435689 -0.161312 -1.01688
0.0435539 -0.16085 -1.01741
0.0445361 -0.160317 -1.01745
0.0445013 -0.15932 -1.01752
0.0444666 -0.158323 -1.01759
0.0434498 -0.15786 -1.01763
0.0434301 -0.157325 -1.01717
0.0433954 -0.156328 -1.01724
0.0435389 -0.160388 -1.01795
0.0435042 -0.159391 -1.01802
0.0434695 -0.158395 -1.0181
0.0444694 -0.186741 -1.02203
0.0444891 -0.187276 -1.02249
0.0454712 -0.186743 -1.02252
0.0454365 -0.185746 -1.0226
0.0444347 -0.185745 -1.0221
0.0454018 -0.18475 -1.02267
0.0444 -0.184748 -1.02217
0.0453671 -0.183753 -1.02274
0.0443653 -0.183751 -1.02225
0.0453324 -0.182756 -1.02282
0.0443306 -0.182755 -1.02232
0.0452977 -0.181759 -1.02289
0.0442958 -0.181758 -1.02239
0.045263 -0.180763 -1.02296
0.0442611 -0.180761 -1.02247
0.0452283 -0.179766 -1.02304
0.0442264 -0.179764 -1.02254
0.0451936 -0.178769 -1.02311
0.0441917 -0.178768 -1.02261
0.0441767 -0.178306 -1.02315
0.0440529 -0.174781 -1.02291
0.0440726 -0.175316 -1.02337
0.0450548 -0.174783 -1.0234
0.0440379 -0.174319 -1.02344
0.0445435 -0.188808 -1.02288
0.0445632 -0.189343 -1.02334
0.0455454 -0.18881 -1.02338
0.0455107 -0.187813 -1.02345
0.0445088 -0.187811 -1.02295
0.045476 -0.186816 -1.02352
0.0454412 -0.185819 -1.02359
0.0454065 -0.184823 -1.02367
0.0453718 -0.183826 -1.02374
0.0453371 -0.182829 -1.02381
0.0453024 -0.181833 -1.02389
0.0452677 -0.180836 -1.02396
0.045233 -0.179839 -1.02403
0.0451983 -0.178842 -1.02411
0.0441617 -0.177844 -1.02368
0.0451636 -0.177846 -1.02418
0.0451289 -0.176849 -1.02425
0.044127 -0.176847 -1.02376
0.0450942 -0.175852 -1.02433
0.0440923 -0.175851 -1.02383
0.0450595 -0.174856 -1.0244
0.0440229 -0.173857 -1.02398
0.0450248 -0.173859 -1.02447
0.0440079 -0.173396 -1.02451
0.0455501 -0.188883 -1.02437
0.0445679 -0.189416 -1.02434
0.0455154 -0.187886 -1.02445
0.0454807 -0.186889 -1.02452
0.0454459 -0.185893 -1.02459
0.0454112 -0.184896 -1.02467
0.0453765 -0.183899 -1.02474
0.0453418 -0.182902 -1.02481
0.0453071 -0.181906 -1.02489
0.0452724 -0.180909 -1.02496
0.0452377 -0.179912 -1.02503
0.045203 -0.178916 -1.02511
0.0451683 -0.177919 -1.02518
0.0451336 -0.176922 -1.02525
0.0450989 -0.175925 -1.02532
0.0450642 -0.174929 -1.0254
0.0450295 -0.173932 -1.02547
0.0440126 -0.173469 -1.02551
0.0445529 -0.188954 -1.02487
0.0445379 -0.188492 -1.02541
0.0455201 -0.187959 -1.02544
0.0454854 -0.186962 -1.02552
0.0454507 -0.185966 -1.02559
0.0454159 -0.184969 -1.02566
0.0453812 -0.183972 -1.02574
0.0453465 -0.182976 -1.02581
0.0453118 -0.181979 -1.02588
0.0452771 -0.180982 -1.02596
0.0452424 -0.179985 -1.02603
0.0452077 -0.178989 -1.0261
0.045173 -0.177992 -1.02618
0.0451383 -0.176995 -1.02625
0.0451036 -0.175999 -1.02632
0.0450689 -0.175002 -1.0264
0.0450342 -0.174005 -1.02647
0.0440173 -0.173542 -1.02651
0.0445229 -0.188031 -1.02594
0.0444882 -0.187034 -1.02602
0.0444535 -0.186037 -1.02609
0.0444188 -0.185041 -1.02616
0.0443841 -0.184044 -1.02624
0.0443691 -0.183582 -1.02677
0.0453512 -0.183049 -1.02681
0.0453165 -0.182052 -1.02688
0.0452818 -0.181055 -1.02695
0.0452471 -0.180059 -1.02703
0.0452124 -0.179062 -1.0271
0.0451777 -0.178065 -1.02717
0.045143 -0.177068 -1.02725
0.0451083 -0.176072 -1.02732
0.0440717 -0.175073 -1.0269
0.0440914 -0.175608 -1.02736
0.044037 -0.174077 -1.02697
0.0443541 -0.18312 -1.02731
0.0443194 -0.182124 -1.02738
0.0442847 -0.181127 -1.02745
0.0442499 -0.18013 -1.02753
0.0442152 -0.179133 -1.0276
0.0441805 -0.178137 -1.02767
0.0441458 -0.17714 -1.02775
0.0441111 -0.176143 -1.02782
0.0421539 -0.179149 -0.999534
0.0421736 -0.179684 -0.999996
0.0431558 -0.179151 -1.00003
0.0431211 -0.178154 -1.0001
0.0421192 -0.178152 -0.999607
0.0421042 -0.17769 -1.00014
0.0409393 -0.144264 -1.0021
0.040959 -0.144799 -1.00256
0.0419412 -0.144266 -1.00259
0.0419065 -0.143269 -1.00267
0.0409046 -0.143267 -1.00217
0.0418718 -0.142272 -1.00274
0.0408699 -0.142271 -1.00224
0.0408549 -0.141809 -1.00278
0.0423669 -0.185202 -1.00009
0.0423866 -0.185737 -1.00055
0.0433687 -0.185204 -1.00059
0.043334 -0.184207 -1.00066
0.0423322 -0.184206 -1.00016
0.0432993 -0.183211 -1.00073
0.0422975 -0.183209 -1.00024
0.0432646 -0.182214 -1.00081
0.0422627 -0.182212 -1.00031
0.0432299 -0.181217 -1.00088
0.042228 -0.181216 -1.00038
0.0431952 -0.18022 -1.00095
0.0421933 -0.180219 -1.00046
0.0431605 -0.179224 -1.00103
0.0431258 -0.178227 -1.0011
0.0420892 -0.177229 -1.00068
0.0430911 -0.17723 -1.00117
0.0430564 -0.176234 -1.00125
0.0420545 -0.176232 -1.00075
0.0430217 -0.175237 -1.00132
0.0420198 -0.175235 -1.00082
0.042987 -0.17424 -1.00139
0.0419851 -0.174239 -1.0009
0.0429523 -0.173243 -1.00147
0.0419504 -0.173242 -1.00097
0.0419354 -0.17278 -1.00151
0.0409787 -0.145334 -1.00302
0.0409984 -0.145869 -1.00348
0.0419806 -0.145336 -1.00352
0.0419459 -0.144339 -1.00359
0.0419112 -0.143342 -1.00366
0.0418765 -0.142345 -1.00374
0.0408399 -0.141347 -1.00331
0.0418418 -0.141349 -1.00381
0.0408249 -0.140885 -1.00385
0.0433734 -0.185277 -1.00159
0.0423913 -0.18581 -1.00155
0.0433387 -0.18428 -1.00166
0.043304 -0.183284 -1.00173
0.0432693 -0.182287 -1.0018
0.0432346 -0.18129 -1.00188
0.0430264 -0.17531 -1.00232
0.0429917 -0.174313 -1.00239
0.042957 -0.173317 -1.00246
0.0419204 -0.172318 -1.00204
0.0429223 -0.17232 -1.00254
0.0428876 -0.171323 -1.00261
0.0418857 -0.171322 -1.00211
0.0418707 -0.17086 -1.00265
0.0413999 -0.157368 -1.00314
0.0414196 -0.157903 -1.0036
0.0424018 -0.157369 -1.00364
0.0423671 -0.156373 -1.00371
0.0413652 -0.156371 -1.00321
0.0423323 -0.155376 -1.00378
0.0413305 -0.155374 -1.00329
0.0413155 -0.154912 -1.00382
0.0410181 -0.146404 -1.00395
0.0410378 -0.146939 -1.00441
0.04202 -0.146405 -1.00444
0.0419853 -0.145409 -1.00452
0.0419506 -0.144412 -1.00459
0.0419159 -0.143415 -1.00466
0.0418812 -0.142419 -1.00474
0.0418465 -0.141422 -1.00481
0.0408296 -0.140959 -1.00485
0.0423763 -0.185349 -1.00209
0.0423613 -0.184887 -1.00262
0.0433434 -0.184354 -1.00266
0.0433087 -0.183357 -1.00273
0.043274 -0.18236 -1.0028
0.0432393 -0.181363 -1.00288
0.0432046 -0.180367 -1.00295
0.0430311 -0.175383 -1.00331
0.0429964 -0.174386 -1.00339
0.0429617 -0.17339 -1.00346
0.042927 -0.172393 -1.00353
0.0428923 -0.171396 -1.00361
0.0418754 -0.170933 -1.00365
0.041474 -0.159434 -1.00399
0.0414937 -0.159969 -1.00445
0.0424759 -0.159436 -1.00449
0.0414393 -0.158437 -1.00406
0.0423023 -0.154452 -1.00485
0.0413005 -0.154451 -1.00436
0.0422676 -0.153456 -1.00493
0.0412658 -0.153454 -1.00443
0.0422329 -0.152459 -1.005
0.0412311 -0.152457 -1.0045
0.0412161 -0.151995 -1.00504
0.0410575 -0.147474 -1.00487
0.0410772 -0.148009 -1.00533
0.0420594 -0.147475 -1.00537
0.0420247 -0.146479 -1.00544
0.04199 -0.145482 -1.00551
0.0419553 -0.144485 -1.00559
0.0419206 -0.143488 -1.00566
0.0418859 -0.142492 -1.00573
0.0418512 -0.141495 -1.00581
0.0408343 -0.141032 -1.00584
0.0423463 -0.184425 -1.00316
0.0423116 -0.183428 -1.00323
0.0422966 -0.182967 -1.00377
0.0432787 -0.182433 -1.0038
0.043244 -0.181437 -1.00387
0.0432093 -0.18044 -1.00395
0.0431746 -0.179443 -1.00402
0.0431399 -0.178446 -1.00409
0.0431052 -0.17745 -1.00417
0.0430705 -0.176453 -1.00424
0.0430358 -0.175456 -1.00431
0.0430011 -0.17446 -1.00439
0.0429664 -0.173463 -1.00446
0.0429317 -0.172466 -1.00453
0.0418951 -0.171468 -1.00411
0.0419148 -0.172003 -1.00457
0.0415481 -0.161501 -1.00484
0.0415678 -0.162036 -1.0053
0.04255 -0.161502 -1.00534
0.0415134 -0.160504 -1.00491
0.0422376 -0.152532 -1.006
0.0412011 -0.151534 -1.00557
0.0422029 -0.151535 -1.00607
0.0421682 -0.150539 -1.00614
0.0411664 -0.150537 -1.00565
0.0421335 -0.149542 -1.00622
0.0411316 -0.14954 -1.00572
0.0420988 -0.148545 -1.00629
0.0410969 -0.148544 -1.00579
0.0420641 -0.147548 -1.00636
0.0420294 -0.146552 -1.00644
0.0419947 -0.145555 -1.00651
0.04196 -0.144558 -1.00658
0.0419253 -0.143562 -1.00666
0.0418906 -0.142565 -1.00673
0.0418559 -0.141568 -1.0068
0.040839 -0.141105 -1.00684
0.0422816 -0.182505 -1.0043
0.0422469 -0.181508 -1.00437
0.0422319 -0.181046 -1.00491
0.043214 -0.180513 -1.00494
0.0431793 -0.179516 -1.00502
0.0431446 -0.17852 -1.00509
0.0431099 -0.177523 -1.00516
0.0430752 -0.176526 -1.00524
0.0430405 -0.175529 -1.00531
0.0430058 -0.174533 -1.00538
0.0419692 -0.173534 -1.00496
0.0419889 -0.174069 -1.00542
0.0419345 -0.172538 -1.00503
0.0415875 -0.162571 -1.00577
0.0416072 -0.163106 -1.00623
0.0425894 -0.162572 -1.00626
0.0425547 -0.161575 -1.00634
0.0422076 -0.151608 -1.00707
0.0421729 -0.150612 -1.00714
0.0421382 -0.149615 -1.00721
0.0421035 -0.148618 -1.00729
0.0420688 -0.147622 -1.00736
0.0420341 -0.146625 -1.00743
0.0419994 -0.145628 -1.00751
0.0419647 -0.144631 -1.00758
0.04193 -0.143635 -1.00765
0.0418953 -0.142638 -1.00773
0.0418606 -0.141641 -1.0078
0.0408437 -0.141178 -1.00784
0.0422169 -0.180584 -1.00544
0.0421821 -0.179588 -1.00552
0.0421474 -0.178591 -1.00559
0.0421127 -0.177594 -1.00566
0.042078 -0.176598 -1.00574
0.0420433 -0.175601 -1.00581
0.0420086 -0.174604 -1.00588
0.0416269 -0.16364 -1.00669
0.0416466 -0.164175 -1.00715
0.0426288 -0.163642 -1.00719
0.0425941 -0.162645 -1.00726
0.0421776 -0.150685 -1.00814
0.0421429 -0.149688 -1.00821
0.0421082 -0.148691 -1.00828
0.0420735 -0.147695 -1.00836
0.0420388 -0.146698 -1.00843
0.0420041 -0.145701 -1.0085
0.0419694 -0.144705 -1.00858
0.0419347 -0.143708 -1.00865
0.0419 -0.142711 -1.00872
0.0418653 -0.141714 -1.0088
0.0408484 -0.141251 -1.00884
0.0426335 -0.163715 -1.00818
0.0416513 -0.164248 -1.00815
0.0425988 -0.162718 -1.00826
0.0421823 -0.150758 -1.00914
0.0421476 -0.149761 -1.00921
0.0421129 -0.148765 -1.00928
0.0420782 -0.147768 -1.00936
0.0420435 -0.146771 -1.00943
0.0420088 -0.145774 -1.0095
0.0419741 -0.144778 -1.00958
0.0419394 -0.143781 -1.00965
0.0419047 -0.142784 -1.00972
0.0408681 -0.141786 -1.0093
0.0408878 -0.142321 -1.00976
0.0426382 -0.163788 -1.00918
0.041656 -0.164322 -1.00915
0.0421523 -0.149834 -1.01021
0.0421176 -0.148838 -1.01028
0.0420829 -0.147841 -1.01035
0.0420482 -0.146844 -1.01043
0.0420135 -0.145848 -1.0105
0.0419788 -0.144851 -1.01057
0.0419441 -0.143854 -1.01065
0.0419094 -0.142857 -1.01072
0.0408925 -0.142394 -1.01076
0.0416757 -0.164857 -1.00961
0.0416954 -0.165391 -1.01007
0.0426776 -0.164858 -1.0101
0.0426429 -0.163861 -1.01018
0.042157 -0.149908 -1.0112
0.0421223 -0.148911 -1.01128
0.0420876 -0.147914 -1.01135
0.0420529 -0.146917 -1.01142
0.0420182 -0.145921 -1.0115
0.0419835 -0.144924 -1.01157
0.0419488 -0.143927 -1.01164
0.0409122 -0.142929 -1.01122
0.0409319 -0.143464 -1.01168
0.0426823 -0.164931 -1.0111
0.0417001 -0.165465 -1.01107
0.0426476 -0.163935 -1.01118
0.0421617 -0.149981 -1.0122
0.042127 -0.148984 -1.01227
0.0410905 -0.147986 -1.01185
0.0411102 -0.148521 -1.01231
0.0410557 -0.146989 -1.01192
0.041021 -0.145992 -1.012
0.0409863 -0.144996 -1.01207
0.0409516 -0.143999 -1.01214
0.042687 -0.165004 -1.0121
0.0417048 -0.165538 -1.01206
0.0426523 -0.164008 -1.01217
0.0422011 -0.151051 -1.01312
0.0411843 -0.150587 -1.01316
0.0411646 -0.150052 -1.0127
0.0411299 -0.149055 -1.01277
0.0426917 -0.165078 -1.0131
0.0417095 -0.165611 -1.01306
0.042657 -0.164081 -1.01317
0.0412237 -0.151657 -1.01409
0.041204 -0.151122 -1.01363
0.0417292 -0.166146 -1.01352
0.0417489 -0.166681 -1.01399
0.0427311 -0.166147 -1.01402
0.0426964 -0.165151 -1.01409
0.0426617 -0.164154 -1.01417
0.0412978 -0.153724 -1.01494
0.0412781 -0.153189 -1.01448
0.04228 -0.15319 -1.01497
0.0412434 -0.152192 -1.01455
0.0417339 -0.166219 -1.01452
0.0417189 -0.165757 -1.01506
0.0427011 -0.165224 -1.01509
0.0426664 -0.164227 -1.01516
0.0413372 -0.154793 -1.01586
0.0413175 -0.154258 -1.0154
0.0417039 -0.165295 -1.01559
0.0416889 -0.164834 -1.01613
0.0426711 -0.1643 -1.01616
0.0426364 -0.163304 -1.01624
0.0414113 -0.15686 -1.01671
0.0413916 -0.156325 -1.01625
0.0423935 -0.156327 -1.01675
0.0413569 -0.155328 -1.01632
0.0416739 -0.164372 -1.01666
0.0416392 -0.163375 -1.01674
0.0416045 -0.162378 -1.01681
0.0415895 -0.161917 -1.01734
0.0425717 -0.161383 -1.01738