<VTKFile type="UnstructuredGrid" version="0.1" byte_order="BigEndian">
  <UnstructuredGrid>
    <Piece NumberOfPoints="24126" NumberOfCells="48248">
      <PointData>
        <DataArray type="Float64" Name="position" NumberOfComponents="3" format="ascii">
0.0563812 0.21958 -0.165779
0.0563821 0.219067 -0.166266
0.05688 0.219569 -0.16628
0.056876 0.220568 -0.166307
0.0563771 0.22058 -0.165806
0.0568719 0.221568 -0.166333
0.0563731 0.221579 -0.165832
0.0563699 0.222066 -0.166345
0.0563789 0.219553 -0.166779
0.0563748 0.220553 -0.166805
0.0563707 0.221553 -0.166832
0.05539 0.21863 -0.163751
0.0553908 0.218116 -0.164237
0.0558888 0.218618 -0.164252
0.0558847 0.219618 -0.164278
0.0553859 0.219629 -0.163777
0.0553827 0.220116 -0.16429
0.0553917 0.217603 -0.164724
0.0553926 0.21709 -0.16521
0.0558905 0.217592 -0.165225
0.0558865 0.218592 -0.165251
0.0558824 0.219591 -0.165278
0.0553795 0.220602 -0.164804
0.0558783 0.220591 -0.165305
0.0553763 0.221089 -0.165317
0.0553894 0.217577 -0.165723
0.0553862 0.218063 -0.166237
0.0558841 0.218565 -0.166251
0.0553731 0.221575 -0.16583
0.0553699 0.222062 -0.166343
0.0558818 0.218538 -0.167251
0.0553838 0.218037 -0.167236
0.0558777 0.219538 -0.167277
0.0558736 0.220538 -0.167304
0.0558696 0.221537 -0.167331
0.0553675 0.222035 -0.167343
0.0558795 0.218512 -0.16825
0.0553815 0.21801 -0.168236
0.0558754 0.219512 -0.168277
0.0558713 0.220511 -0.168304
0.0553684 0.221522 -0.167829
0.0553693 0.221009 -0.168316
0.0558771 0.218485 -0.16925
0.0553792 0.217983 -0.169236
0.055873 0.219485 -0.169277
0.0553701 0.220496 -0.168802
0.055371 0.219983 -0.169289
0.055376 0.21847 -0.169749
0.0553719 0.21947 -0.169775
0.054394 0.217626 -0.163722
0.0543949 0.217113 -0.164208
0.0548929 0.217615 -0.164223
0.05439 0.218626 -0.163748
0.0543859 0.219625 -0.163775
0.0543827 0.220112 -0.164288
0.0543926 0.217086 -0.165208
0.0543795 0.220598 -0.164801
0.0543763 0.221085 -0.165314
0.0548882 0.217561 -0.166222
0.0543902 0.21706 -0.166208
0.0548719 0.22156 -0.166328
0.054374 0.221058 -0.166314
0.0548859 0.217535 -0.167222
0.0543879 0.217033 -0.167207
0.0543707 0.221545 -0.166827
0.0543675 0.222031 -0.16734
0.0548835 0.217508 -0.168221
0.0543856 0.217006 -0.168207
0.0543693 0.221005 -0.168313
0.0543684 0.221518 -0.167827
0.0548812 0.217482 -0.169221
0.0543832 0.21698 -0.169206
0.054869 0.220481 -0.169301
0.0543669 0.220978 -0.169313
0.05438 0.217466 -0.16972
0.0543768 0.217953 -0.170233
0.0548748 0.218455 -0.170247
0.0548707 0.219454 -0.170274
0.0548666 0.220454 -0.1703
0.0543646 0.220952 -0.170312
0.0543736 0.218439 -0.170746
0.0543704 0.218926 -0.171259
0.0548684 0.219428 -0.171273
0.0548643 0.220427 -0.1713
0.0543623 0.220925 -0.171312
0.0543672 0.219412 -0.171772
0.0543632 0.220412 -0.171799
0.0533941 0.217622 -0.163719
0.0533949 0.217109 -0.164206
0.05339 0.218622 -0.163746
0.0533859 0.219621 -0.163772
0.0533827 0.220108 -0.164286
0.0533958 0.216596 -0.164692
0.0533967 0.216083 -0.165179
0.0538946 0.216584 -0.165193
0.0533795 0.220594 -0.164799
0.0533763 0.221081 -0.165312
0.0538923 0.216558 -0.166193
0.0533943 0.216056 -0.166179
0.053374 0.221054 -0.166311
0.05389 0.216531 -0.167193
0.053392 0.216029 -0.167178
0.0538696 0.221529 -0.167326
0.0533716 0.221028 -0.167311
0.0538876 0.216505 -0.168192
0.0533897 0.216003 -0.168178
0.0533693 0.221001 -0.168311
0.0533865 0.216489 -0.168691
0.0533833 0.216976 -0.169204
0.053367 0.220974 -0.16931
0.0538789 0.217451 -0.170218
0.0533809 0.216949 -0.170204
0.0533646 0.220948 -0.17031
0.0533777 0.217436 -0.170717
0.0533745 0.217922 -0.17123
0.0538725 0.218424 -0.171244
0.0533623 0.220921 -0.17131
0.0533713 0.218409 -0.171743
0.0533672 0.219408 -0.17177
0.0533632 0.220408 -0.171796
0.0523981 0.216618 -0.16369
0.052399 0.216105 -0.164177
0.052897 0.216607 -0.164191
0.0523941 0.217618 -0.163717
0.05239 0.218618 -0.163743
0.0523859 0.219617 -0.16377
0.0523827 0.220104 -0.164283
0.0523967 0.216079 -0.165176
0.0523795 0.22059 -0.164796
0.0523763 0.221077 -0.165309
0.0523943 0.216052 -0.166176
0.052374 0.22105 -0.166309
0.0523952 0.215539 -0.166663
0.0523961 0.215026 -0.167149
0.052894 0.215528 -0.167164
0.0523757 0.220024 -0.167282
0.0523748 0.220537 -0.166796
0.0528737 0.220526 -0.167297
0.0528917 0.215501 -0.168163
0.0523937 0.214999 -0.168149
0.0523725 0.22051 -0.167795
0.0523693 0.220997 -0.168308
0.0523905 0.215486 -0.168662
0.0523873 0.215972 -0.169175
0.0528853 0.216474 -0.16919
0.052367 0.22097 -0.169308
0.052883 0.216447 -0.170189
0.052385 0.215946 -0.170175
0.0523646 0.220944 -0.170308
0.0523818 0.216432 -0.170688
0.0523786 0.216919 -0.171201
0.0528766 0.21742 -0.171215
0.0523623 0.220917 -0.171307
0.0523754 0.217405 -0.171714
0.0523713 0.218405 -0.171741
0.0523672 0.219404 -0.171767
0.0523632 0.220404 -0.171794
0.0514022 0.215615 -0.163661
0.0514031 0.215102 -0.164148
0.0519011 0.215603 -0.164162
0.0513982 0.216614 -0.163688
0.0513941 0.217614 -0.163714
0.05139 0.218614 -0.163741
0.0513868 0.2191 -0.164254
0.0518848 0.219602 -0.164269
0.0518987 0.215577 -0.165162
0.0514008 0.215075 -0.165147
0.0513836 0.219587 -0.164767
0.0513804 0.220073 -0.16528
0.0518783 0.220575 -0.165295
0.0518964 0.21555 -0.166162
0.0513984 0.215048 -0.166147
0.051876 0.220548 -0.166295
0.0513781 0.220047 -0.16628
0.0513993 0.214535 -0.166634
0.0514002 0.214022 -0.16712
0.0518981 0.214524 -0.167135
0.0513757 0.22002 -0.16728
0.0518958 0.214497 -0.168134
0.0513978 0.213995 -0.16812
0.0518713 0.220495 -0.168294
0.0513734 0.219993 -0.168279
0.0513946 0.214482 -0.168633
0.0513906 0.215482 -0.168659
0.0513874 0.215968 -0.169173
0.051869 0.220469 -0.169293
0.0513711 0.219967 -0.169279
0.0513923 0.214455 -0.169633
0.0513932 0.213942 -0.170119
0.0518911 0.214444 -0.170134
0.0513891 0.214942 -0.170146
0.051385 0.215942 -0.170172
0.0513679 0.220453 -0.169792
0.0513646 0.22094 -0.170305
0.05139 0.214429 -0.170632
0.0518806 0.216417 -0.171186
0.0513827 0.215915 -0.171172
0.0513623 0.220913 -0.171305
0.0513795 0.216401 -0.171685
0.0513763 0.216888 -0.172198
0.0518742 0.21739 -0.172213
0.0518702 0.218389 -0.172239
0.0518661 0.219389 -0.172266
0.051862 0.220389 -0.172292
0.05136 0.220887 -0.172304
0.0513731 0.217375 -0.172711
0.051369 0.218374 -0.172738
0.0513649 0.219374 -0.172764
0.0513608 0.220373 -0.172791
0.0504022 0.215611 -0.163659
0.0504031 0.215097 -0.164145
0.0503982 0.21661 -0.163685
0.0503941 0.21761 -0.163712
0.05039 0.21861 -0.163739
0.0503868 0.219096 -0.164252
0.0504008 0.215071 -0.165145
0.0503836 0.219583 -0.164765
0.0503804 0.220069 -0.165278
0.0503984 0.215044 -0.166145
0.0503781 0.220042 -0.166278
0.0503993 0.214531 -0.166631
0.0504002 0.214018 -0.167118
0.0503757 0.220016 -0.167277
0.0503978 0.213991 -0.168117
0.0503734 0.219989 -0.168277
0.0508935 0.214467 -0.169131
0.0503955 0.213965 -0.169117
0.0508894 0.215466 -0.169158
0.0503711 0.219963 -0.169276
0.0503932 0.213938 -0.170117
0.0508871 0.21544 -0.170158
0.0503679 0.220449 -0.16979
0.0503647 0.220936 -0.170303
0.0508888 0.214414 -0.171131
0.0503908 0.213912 -0.171116
0.0508847 0.215413 -0.171157
0.0503623 0.220909 -0.171302
0.0503876 0.214398 -0.171629
0.0503836 0.215398 -0.171656
0.0503804 0.215884 -0.172169
0.0508783 0.216386 -0.172184
0.05036 0.220883 -0.172302
0.0503772 0.216371 -0.172682
0.0503731 0.217371 -0.172709
0.050369 0.21837 -0.172735
0.0503649 0.21937 -0.172762
0.0503609 0.220369 -0.172789
0.0494022 0.215607 -0.163656
0.0494031 0.215093 -0.164143
0.0493982 0.216606 -0.163683
0.0493941 0.217606 -0.16371
0.0493909 0.218092 -0.164223
0.0498889 0.218594 -0.164237
0.0494008 0.215067 -0.165143
0.0493877 0.218579 -0.164736
0.0493845 0.219065 -0.165249
0.0498824 0.219567 -0.165263
0.0494017 0.214554 -0.165629
0.0494025 0.214041 -0.166116
0.0499005 0.214542 -0.16613
0.0498801 0.219541 -0.166263
0.0493822 0.219039 -0.166249
0.0494002 0.214014 -0.167115
0.0498778 0.219514 -0.167263
0.0493798 0.219012 -0.167248
0.0493979 0.213987 -0.168115
0.0493766 0.219499 -0.167761
0.0493734 0.219985 -0.168274
0.0493955 0.213961 -0.169115
0.0493752 0.218959 -0.169247
0.0493743 0.219472 -0.168761
0.0498731 0.219461 -0.169262
0.0493932 0.213934 -0.170114
0.0493719 0.219446 -0.169761
0.0493687 0.219932 -0.170274
0.0498667 0.220434 -0.170288
0.0493909 0.213908 -0.171114
0.0498644 0.220407 -0.171288
0.0493664 0.219906 -0.171273
0.0493876 0.214394 -0.171627
0.0493844 0.214881 -0.17214
0.0498824 0.215383 -0.172155
0.0493632 0.220392 -0.171786
0.04936 0.220879 -0.1723
0.0493812 0.215367 -0.172653
0.049378 0.215854 -0.173166
0.049876 0.216356 -0.173181
0.0498719 0.217355 -0.173207
0.0498678 0.218355 -0.173234
0.0493658 0.218853 -0.173246
0.0493649 0.219366 -0.172759
0.0493609 0.220365 -0.172786
0.0493748 0.21634 -0.173679
0.0493708 0.21734 -0.173706
0.0493667 0.21834 -0.173733
0.0484063 0.214603 -0.163627
0.0484072 0.21409 -0.164114
0.0489052 0.214592 -0.164128
0.0484023 0.215603 -0.163654
0.0483982 0.216602 -0.163681
0.048395 0.217089 -0.164194
0.0488929 0.217591 -0.164208
0.0489028 0.214565 -0.165128
0.0484049 0.214063 -0.165114
0.0483918 0.217575 -0.164707
0.0483886 0.218062 -0.16522
0.0488865 0.218564 -0.165234
0.0484025 0.214037 -0.166113
0.0483854 0.218548 -0.165733
0.0483822 0.219035 -0.166246
0.0484034 0.213524 -0.1666
0.0484043 0.21301 -0.167086
0.0489022 0.213512 -0.167101
0.0483798 0.219008 -0.167246
0.0488999 0.213486 -0.1681
0.0484019 0.212984 -0.168086
0.0488755 0.219483 -0.16826
0.0483775 0.218982 -0.168245
0.0488976 0.213459 -0.1691
0.0483996 0.212957 -0.169085
0.0483752 0.218955 -0.169245
0.0488952 0.213432 -0.1701
0.0483973 0.212931 -0.170085
0.048372 0.219442 -0.169758
0.0483688 0.219928 -0.170271
0.0483981 0.212418 -0.170572
0.048399 0.211904 -0.171058
0.048897 0.212406 -0.171073
0.0488929 0.213406 -0.171099
0.0483664 0.219901 -0.171271
0.0483958 0.212391 -0.171571
0.0483917 0.213391 -0.171598
0.0483885 0.213877 -0.172111
0.0488865 0.214379 -0.172126
0.048862 0.220377 -0.172285
0.0483641 0.219875 -0.172271
0.0483853 0.214364 -0.172624
0.0483813 0.215363 -0.172651
0.048378 0.21585 -0.173164
0.0483658 0.218849 -0.173244
0.048365 0.219362 -0.172757
0.0488737 0.216325 -0.174178
0.0483757 0.215823 -0.174163
0.0488696 0.217325 -0.174205
0.0488655 0.218324 -0.174231
0.0483635 0.218822 -0.174243
0.0483725 0.21631 -0.174677
0.0483684 0.217309 -0.174703
0.0483644 0.218309 -0.17473
0.0474063 0.214599 -0.163625
0.0474072 0.214086 -0.164111
0.0474031 0.215085 -0.164138
0.0479011 0.215587 -0.164153
0.047897 0.216587 -0.164179
0.0474049 0.214059 -0.165111
0.0473999 0.215572 -0.164651
0.0478947 0.21656 -0.165179
0.0473967 0.216059 -0.165164
0.0473918 0.217571 -0.164704
0.0473927 0.217058 -0.165191
0.0473886 0.218058 -0.165217
0.0474025 0.214033 -0.166111
0.0473935 0.216545 -0.165677
0.0478842 0.218533 -0.166232
0.0473862 0.218031 -0.166217
0.0474034 0.21352 -0.166597
0.0474043 0.213006 -0.167084
0.0478819 0.218506 -0.167231
0.0473839 0.218005 -0.167217
0.047402 0.21298 -0.168083
0.0478795 0.21848 -0.168231
0.0473816 0.217978 -0.168216
0.0474028 0.212467 -0.16857
0.0474037 0.211954 -0.169056
0.0479016 0.212455 -0.169071
0.0478772 0.218453 -0.16923
0.0473792 0.217951 -0.169216
0.0478993 0.212429 -0.170071
0.0474014 0.211927 -0.170056
0.047376 0.218438 -0.169729
0.0473728 0.218924 -0.170242
0.0478708 0.219426 -0.170257
0.047399 0.2119 -0.171056
0.0478685 0.2194 -0.171256
0.0473705 0.218898 -0.171242
0.0478946 0.212376 -0.17207
0.0473967 0.211874 -0.172055
0.0478906 0.213375 -0.172096
0.0473673 0.219384 -0.171755
0.0473641 0.219871 -0.172268
0.0473935 0.21236 -0.172569
0.0473894 0.21336 -0.172595
0.0473862 0.213846 -0.173108
0.0478842 0.214348 -0.173123
0.0478801 0.215348 -0.173149
0.0473658 0.218845 -0.173241
0.047365 0.219358 -0.172755
0.0478818 0.214322 -0.174122
0.0473839 0.21382 -0.174108
0.0478778 0.215321 -0.174149
0.0473635 0.218818 -0.174241
0.0473807 0.214306 -0.174621
0.0473766 0.215306 -0.174648
0.0473725 0.216306 -0.174674
0.0473684 0.217305 -0.174701
0.0473644 0.218305 -0.174727
0.0464064 0.214595 -0.163622
0.0464072 0.214082 -0.164109
0.0464032 0.215081 -0.164136
0.0464081 0.213569 -0.164596
0.046409 0.213056 -0.165082
0.0469069 0.213557 -0.165097
0.0468988 0.215557 -0.16515
0.0464008 0.215055 -0.165135
0.0468906 0.217556 -0.165203
0.0469046 0.213531 -0.166096
0.0464066 0.213029 -0.166082
0.0468964 0.21553 -0.166149
0.0463985 0.215028 -0.166135
0.0468924 0.21653 -0.166176
0.0468883 0.217529 -0.166203
0.0464043 0.213002 -0.167081
0.0463953 0.215515 -0.166648
0.0463912 0.216514 -0.166675
0.046886 0.217503 -0.167202
0.046388 0.217001 -0.167188
0.046402 0.212976 -0.168081
0.0468836 0.217476 -0.168202
0.0463857 0.216974 -0.168187
0.0464028 0.212463 -0.168567
0.0464037 0.21195 -0.169054
0.0468813 0.21745 -0.169201
0.0463833 0.216948 -0.169187
0.0464014 0.211923 -0.170054
0.0463801 0.217434 -0.1697
0.0463769 0.217921 -0.170213
0.0468749 0.218423 -0.170228
0.0464022 0.21141 -0.17054
0.0464031 0.210897 -0.171027
0.0469011 0.211399 -0.171041
0.0468725 0.218396 -0.171227
0.0463746 0.217894 -0.171213
0.0463999 0.211383 -0.17154
0.0463967 0.21187 -0.172053
0.0463714 0.218381 -0.171726
0.0463682 0.218867 -0.172239
0.0468661 0.219369 -0.172254
0.0463935 0.212356 -0.172566
0.0463903 0.212843 -0.173079
0.0468882 0.213345 -0.173094
0.0463658 0.218841 -0.173239
0.0463871 0.213329 -0.173592
0.0463839 0.213816 -0.174105
0.0463676 0.217814 -0.174212
0.0463667 0.218328 -0.173725
0.0468655 0.218316 -0.174226
0.0463807 0.214302 -0.174619
0.0463766 0.215302 -0.174645
0.0463725 0.216302 -0.174672
0.0463685 0.217301 -0.174698
0.0459052 0.21458 -0.164121
0.0454081 0.213565 -0.164593
0.045409 0.213052 -0.16508
0.045404 0.214564 -0.16462
0.0454008 0.215051 -0.165133
0.0454098 0.212538 -0.165566
0.0454107 0.212025 -0.166053
0.0459087 0.212527 -0.166067
0.0453985 0.215024 -0.166132
0.0459063 0.212501 -0.167067
0.0454084 0.211999 -0.167052
0.0458941 0.215499 -0.167147
0.0453962 0.214998 -0.167132
0.04589 0.216499 -0.167173
0.0454092 0.211486 -0.167539
0.0454101 0.210973 -0.168025
0.0459081 0.211474 -0.16804
0.045904 0.212474 -0.168066
0.045393 0.215484 -0.167645
0.0458877 0.216473 -0.168173
0.0453898 0.215971 -0.168158
0.0459057 0.211448 -0.16904
0.0454078 0.210946 -0.169025
0.0458854 0.216446 -0.169172
0.0453874 0.215944 -0.169158
0.0459034 0.211421 -0.170039
0.0454055 0.210919 -0.170025
0.0453842 0.216431 -0.169671
0.045381 0.216917 -0.170184
0.045879 0.217419 -0.170199
0.0454031 0.210893 -0.171024
0.0453778 0.217404 -0.170697
0.0453746 0.21789 -0.17121
0.0458987 0.211368 -0.172038
0.0454008 0.210866 -0.172024
0.0458702 0.218365 -0.172225
0.0453723 0.217864 -0.17221
0.0453976 0.211353 -0.172537
0.0453944 0.211839 -0.17305
0.0458923 0.212341 -0.173065
0.0458679 0.218339 -0.173224
0.0453699 0.217837 -0.17321
0.04589 0.212314 -0.174064
0.045392 0.211813 -0.17405
0.0458859 0.213314 -0.174091
0.0453717 0.216811 -0.174183
0.0453708 0.217324 -0.173696
0.0458696 0.217313 -0.174197
0.0453888 0.212299 -0.174563
0.0453856 0.212786 -0.175076
0.0458836 0.213287 -0.175091
0.0458795 0.214287 -0.175117
0.0458754 0.215287 -0.175144
0.0453734 0.215785 -0.175156
0.0453725 0.216298 -0.174669
0.0453824 0.213272 -0.175589
0.0453784 0.214272 -0.175616
0.0453743 0.215271 -0.175642
0.0449069 0.213549 -0.165092
0.0449029 0.214549 -0.165118
0.0444139 0.211535 -0.165537
0.0444148 0.211022 -0.166024
0.0449128 0.211524 -0.166038
0.0444099 0.212534 -0.165564
0.0444058 0.213534 -0.16559
0.0444017 0.214534 -0.165617
0.0443985 0.21502 -0.16613
0.0449104 0.211497 -0.167038
0.0444125 0.210995 -0.167023
0.0443962 0.214994 -0.16713
0.0444101 0.210968 -0.168023
0.0448918 0.215469 -0.168144
0.0443938 0.214967 -0.168129
0.044411 0.210455 -0.168509
0.0444119 0.209942 -0.168996
0.0449098 0.210444 -0.16901
0.0443906 0.215454 -0.168642
0.0443874 0.21594 -0.169155
0.0449075 0.210417 -0.17001
0.0444095 0.209916 -0.169996
0.0448831 0.216415 -0.17017
0.0443851 0.215913 -0.170155
0.0449052 0.210391 -0.17101
0.0444072 0.209889 -0.170995
0.0443819 0.2164 -0.170668
0.0443787 0.216887 -0.171181
0.0448766 0.217388 -0.171196
0.0449028 0.210364 -0.172009
0.0444049 0.209862 -0.171995
0.0443755 0.217373 -0.171694
0.0443723 0.21786 -0.172208
0.0444017 0.210349 -0.172508
0.0443985 0.210836 -0.173021
0.0448964 0.211337 -0.173036
0.044374 0.216833 -0.173181
0.0443731 0.217346 -0.172694
0.044872 0.217335 -0.173195
0.0448941 0.211311 -0.174035
0.0443961 0.210809 -0.174021
0.0443717 0.216807 -0.17418
0.0443929 0.211295 -0.174534
0.0443897 0.211782 -0.175047
0.0448877 0.212284 -0.175062
0.0443734 0.215781 -0.175153
0.0443726 0.216294 -0.174667
0.0443865 0.212268 -0.17556
0.0443824 0.213268 -0.175587
0.0443784 0.214268 -0.175613
0.0443743 0.215267 -0.17564
0.0434139 0.211531 -0.165535
0.0434148 0.211018 -0.166021
0.0434099 0.21253 -0.165561
0.0434067 0.213017 -0.166074
0.0439046 0.213519 -0.166089
0.0439005 0.214518 -0.166115
0.0434157 0.210505 -0.166508
0.0434165 0.209991 -0.166994
0.0439145 0.210493 -0.167009
0.0434035 0.213503 -0.166587
0.0438982 0.214492 -0.167115
0.0434003 0.21399 -0.167101
0.0439122 0.210467 -0.168008
0.0434142 0.209965 -0.167994
0.0438959 0.214465 -0.168115
0.0433979 0.213963 -0.1681
0.0434151 0.209452 -0.16848
0.043416 0.208939 -0.168967
0.0439139 0.20944 -0.168981
0.0433947 0.21445 -0.168613
0.0433915 0.214936 -0.169126
0.0438895 0.215438 -0.169141
0.0439116 0.209414 -0.169981
0.0434136 0.208912 -0.169967
0.0433883 0.215423 -0.16964
0.0433851 0.215909 -0.170153
0.0439092 0.209387 -0.170981
0.0434113 0.208885 -0.170966
0.0438807 0.216385 -0.171167
0.0433828 0.215883 -0.171152
0.0439069 0.209361 -0.17198
0.043409 0.208859 -0.171966
0.0438784 0.216358 -0.172166
0.0433804 0.215856 -0.172152
0.0438743 0.217358 -0.172193
0.0434057 0.209345 -0.172479
0.0434025 0.209832 -0.172992
0.0439005 0.210334 -0.173007
0.0433772 0.216343 -0.172665
0.043374 0.216829 -0.173178
0.0438982 0.210307 -0.174006
0.0434002 0.209805 -0.173992
0.0433758 0.215803 -0.174151
0.0433749 0.216316 -0.173665
0.0438737 0.216305 -0.174166
0.043397 0.210292 -0.174505
0.0433938 0.210778 -0.175018
0.0438918 0.21128 -0.175032
0.0433734 0.215777 -0.175151
0.0433906 0.211265 -0.175531
0.0433874 0.211751 -0.176044
0.0438854 0.212253 -0.176059
0.0438813 0.213253 -0.176085
0.0438772 0.214252 -0.176112
0.0433752 0.21475 -0.176124
0.0433743 0.215263 -0.175637
0.0433842 0.212238 -0.176557
0.0433801 0.213238 -0.176584
0.043376 0.214237 -0.17661
0.042418 0.210527 -0.165506
0.0424189 0.210014 -0.165992
0.0429169 0.210516 -0.166007
0.042414 0.211527 -0.165532
0.0424107 0.212013 -0.166045
0.0429087 0.212515 -0.16606
0.0424198 0.209501 -0.166479
0.0424206 0.208988 -0.166965
0.0429186 0.20949 -0.16698
0.0424075 0.2125 -0.166558
0.0424043 0.212986 -0.167072
0.0429023 0.213488 -0.167086
0.0429163 0.209463 -0.167979
0.0424183 0.208961 -0.167965
0.0429 0.213462 -0.168086
0.042402 0.21296 -0.168071
0.042416 0.208935 -0.168964
0.0423988 0.213446 -0.168584
0.0423956 0.213933 -0.169097
0.0428936 0.214435 -0.169112
0.0424136 0.208908 -0.169964
0.0428912 0.214408 -0.170112
0.0423933 0.213906 -0.170097
0.0428871 0.215408 -0.170138
0.0424113 0.208881 -0.170964
0.0423901 0.214393 -0.17061
0.042386 0.215392 -0.170637
0.0423828 0.215879 -0.17115
0.042409 0.208855 -0.171963
0.0423804 0.215852 -0.17215
0.0429046 0.20933 -0.172978
0.0424066 0.208828 -0.172963
0.0428761 0.216328 -0.173164
0.0423781 0.215826 -0.173149
0.0429023 0.209303 -0.173977
0.0424043 0.208802 -0.173963
0.0423758 0.215799 -0.174149
0.0428999 0.209277 -0.174977
0.042402 0.208775 -0.174962
0.0428958 0.210276 -0.175003
0.0423734 0.215772 -0.175148
0.0423988 0.209262 -0.175475
0.0423956 0.209748 -0.175989
0.0428935 0.21025 -0.176003
0.0428894 0.21125 -0.17603
0.0423752 0.214746 -0.176122
0.0423743 0.215259 -0.175635
0.0423923 0.210235 -0.176502
0.0423883 0.211234 -0.176528
0.0423851 0.211721 -0.177041
0.042883 0.212223 -0.177056
0.042879 0.213222 -0.177083
0.0423769 0.21372 -0.177095
0.0423761 0.214233 -0.176608
0.0423819 0.212207 -0.177555
0.0423778 0.213207 -0.177581
0.041418 0.210523 -0.165503
0.0414189 0.21001 -0.16599
0.0414148 0.21101 -0.166016
0.0419128 0.211511 -0.166031
0.0414198 0.209497 -0.166476
0.0414206 0.208984 -0.166963
0.0414116 0.211496 -0.166529
0.0414084 0.211983 -0.167043
0.0419064 0.212485 -0.167057
0.0414215 0.208471 -0.167449
0.0414224 0.207958 -0.167936
0.0419203 0.208459 -0.16795
0.0414052 0.212469 -0.167556
0.041402 0.212956 -0.168069
0.041918 0.208433 -0.16895
0.0414201 0.207931 -0.168935
0.0413988 0.213442 -0.168582
0.0413956 0.213929 -0.169095
0.0419157 0.208406 -0.16995
0.0414177 0.207904 -0.169935
0.0413933 0.213902 -0.170095
0.0419133 0.20838 -0.170949
0.0414154 0.207878 -0.170935
0.0413901 0.214389 -0.170608
0.0413869 0.214875 -0.171121
0.0418848 0.215377 -0.171135
0.041911 0.208353 -0.171949
0.041413 0.207851 -0.171934
0.0413837 0.215362 -0.171634
0.0413805 0.215848 -0.172147
0.0419087 0.208326 -0.172949
0.0414107 0.207825 -0.172934
0.0413781 0.215822 -0.173147
0.0419063 0.2083 -0.173948
0.0414084 0.207798 -0.173934
0.0413758 0.215795 -0.174146
0.041904 0.208273 -0.174948
0.041406 0.207771 -0.174933
0.0413735 0.215768 -0.175146
0.0414028 0.208258 -0.175446
0.0413996 0.208744 -0.17596
0.0418976 0.209246 -0.175974
0.0413752 0.214742 -0.176119
0.0413743 0.215255 -0.175633
0.0413964 0.209231 -0.176473
0.0413932 0.209717 -0.176986
0.0418912 0.210219 -0.177
0.0418871 0.211219 -0.177027
0.0413769 0.213716 -0.177092
0.0413761 0.214229 -0.176606
0.04139 0.210204 -0.177499
0.041386 0.211204 -0.177525
0.0413819 0.212203 -0.177552
0.0413778 0.213203 -0.177579
0.0409169 0.210508 -0.166002
0.0404239 0.208493 -0.166447
0.0404247 0.20798 -0.166934
0.0409227 0.208482 -0.166948
0.0404198 0.209493 -0.166474
0.0404157 0.210493 -0.1665
0.0404125 0.210979 -0.167013
0.0409105 0.211481 -0.167028
0.0404224 0.207954 -0.167933
0.0404093 0.211466 -0.167527
0.0404061 0.211952 -0.16804
0.0409041 0.212454 -0.168054
0.0404201 0.207927 -0.168933
0.0404029 0.212439 -0.168553
0.0403997 0.212925 -0.169066
0.0408977 0.213427 -0.16908
0.0404209 0.207414 -0.16942
0.0404218 0.206901 -0.169906
0.0409198 0.207403 -0.169921
0.0403965 0.213412 -0.169579
0.0403933 0.213898 -0.170092
0.0409174 0.207376 -0.17092
0.0404195 0.206874 -0.170906
0.0403901 0.214385 -0.170605
0.0403869 0.214871 -0.171118
0.0409151 0.207349 -0.17192
0.0404171 0.206848 -0.171905
0.0408825 0.215346 -0.172133
0.0403845 0.214845 -0.172118
0.0409128 0.207323 -0.17292
0.0404148 0.206821 -0.172905
0.0403813 0.215331 -0.172631
0.0403781 0.215818 -0.173144
0.0409104 0.207296 -0.173919
0.0404125 0.206794 -0.173905
0.0403758 0.215791 -0.174144
0.0404093 0.207281 -0.174418
0.0404061 0.207767 -0.174931
0.0403735 0.215764 -0.175144
0.0409017 0.208243 -0.175945
0.0404037 0.207741 -0.175931
0.0403752 0.214738 -0.176117
0.0403743 0.215251 -0.17563
0.0408993 0.208216 -0.176945
0.0404014 0.207714 -0.17693
0.0408953 0.209216 -0.176971
0.0403769 0.213712 -0.17709
0.0403761 0.214225 -0.176603
0.0403982 0.208201 -0.177443
0.040395 0.208687 -0.177956
0.0408929 0.209189 -0.177971
0.0408889 0.210189 -0.177998
0.0408848 0.211188 -0.178024
0.0403828 0.211686 -0.178036
0.0403819 0.212199 -0.17755
0.0403778 0.213199 -0.177576
0.0403918 0.209174 -0.17847
0.0403877 0.210173 -0.178496
0.0403836 0.211173 -0.178523
0.0394239 0.208489 -0.166445
0.0394247 0.207976 -0.166931
0.0394198 0.209489 -0.166471
0.0394166 0.209975 -0.166984
0.0399146 0.210477 -0.166999
0.0394256 0.207463 -0.167418
0.0394265 0.20695 -0.167904
0.0399244 0.207452 -0.167919
0.0394134 0.210462 -0.167498
0.0394093 0.211462 -0.167524
0.0394061 0.211948 -0.168037
0.0399221 0.207425 -0.168919
0.0394241 0.206923 -0.168904
0.0394029 0.212435 -0.16855
0.0393997 0.212921 -0.169064
0.0394218 0.206897 -0.169904
0.0398953 0.213396 -0.170078
0.0393974 0.212895 -0.170063
0.0394195 0.20687 -0.170903
0.0393942 0.213381 -0.170576
0.039391 0.213868 -0.171089
0.0398889 0.214369 -0.171104
0.0394203 0.206357 -0.17139
0.0394212 0.205844 -0.171876
0.0399192 0.206346 -0.171891
0.0393878 0.214354 -0.171603
0.0393846 0.214841 -0.172116
0.0399168 0.206319 -0.172891
0.0394189 0.205817 -0.172876
0.0398802 0.215316 -0.17313
0.0393822 0.214814 -0.173115
0.0399145 0.206293 -0.17389
0.0394165 0.205791 -0.173876
0.039379 0.215301 -0.173628
0.0393758 0.215787 -0.174141
0.0394133 0.206277 -0.174389
0.0394101 0.206764 -0.174902
0.0399081 0.207266 -0.174916
0.0393735 0.21576 -0.175141
0.0399058 0.207239 -0.175916
0.0394078 0.206737 -0.175902
0.0393752 0.214734 -0.176114
0.0393743 0.215247 -0.175628
0.0399034 0.207212 -0.176916
0.0394055 0.206711 -0.176901
0.0398749 0.21421 -0.177102
0.0393729 0.214708 -0.177114
0.0394023 0.207197 -0.177414
0.0393991 0.207684 -0.177927
0.039897 0.208185 -0.177942
0.0398807 0.212184 -0.178048
0.0398767 0.213184 -0.178075
0.0393746 0.213681 -0.178087
0.0393738 0.214195 -0.1776
0.0393959 0.20817 -0.17844
0.0393927 0.208657 -0.178954
0.0398906 0.209158 -0.178968
0.0393886 0.209656 -0.17898
0.0393877 0.210169 -0.178494
0.0393836 0.211169 -0.17852
0.0393796 0.212169 -0.178547
0.0393755 0.213168 -0.178573
0.0393895 0.209143 -0.179467
0.0384239 0.208485 -0.166442
0.0384248 0.207972 -0.166929
0.0384207 0.208972 -0.166955
0.0389186 0.209474 -0.16697
0.0384256 0.207459 -0.167415
0.0384265 0.206946 -0.167902
0.0384175 0.209458 -0.167469
0.0384134 0.210458 -0.167495
0.0384102 0.210944 -0.168008
0.0389082 0.211446 -0.168023
0.0384274 0.206433 -0.168388
0.0384282 0.20592 -0.168875
0.0389262 0.206421 -0.168889
0.038407 0.211431 -0.168521
0.0384038 0.211917 -0.169034
0.0389017 0.212419 -0.169049
0.0389239 0.206395 -0.169889
0.0384259 0.205893 -0.169875
0.0384006 0.212404 -0.169548
0.0383974 0.212891 -0.170061
0.0389215 0.206368 -0.170889
0.0384236 0.205866 -0.170874
0.0383942 0.213377 -0.170574
0.038391 0.213864 -0.171087
0.0384212 0.20584 -0.171874
0.0383878 0.21435 -0.1716
0.0383846 0.214837 -0.172113
0.0384189 0.205813 -0.172874
0.0383822 0.21481 -0.173113
0.0384166 0.205787 -0.173873
0.038379 0.215297 -0.173626
0.0383758 0.215783 -0.174139
0.0389122 0.206262 -0.174887
0.0384142 0.20576 -0.174873
0.0388714 0.216258 -0.175153
0.0383726 0.21627 -0.174652
0.0383694 0.216756 -0.175165
0.0389099 0.206235 -0.175887
0.0384119 0.205733 -0.175872
0.0383752 0.21473 -0.176112
0.0383744 0.215243 -0.175625
0.0383703 0.216243 -0.175652
0.0389075 0.206209 -0.176887
0.0384096 0.205707 -0.176872
0.0383729 0.214704 -0.177111
0.0384064 0.206193 -0.177385
0.0384032 0.20668 -0.177898
0.0389011 0.207182 -0.177913
0.0383746 0.213677 -0.178084
0.0383738 0.214191 -0.177598
0.0388988 0.207155 -0.178913
0.0384008 0.206653 -0.178898
0.0388947 0.208155 -0.178939
0.0388866 0.210154 -0.178992
0.0388825 0.211154 -0.179019
0.0383804 0.211652 -0.179031
0.0383796 0.212165 -0.178544
0.0383755 0.213164 -0.178571
0.0383976 0.20714 -0.179411
0.0383935 0.208139 -0.179438
0.0383895 0.209139 -0.179464
0.0383854 0.210139 -0.179491
0.0383813 0.211138 -0.179517
0.0379227 0.20847 -0.166941
0.0374297 0.206455 -0.167386
0.0374306 0.205942 -0.167873
0.0379285 0.206444 -0.167887
0.0374256 0.207455 -0.167413
0.0374216 0.208455 -0.16744
0.0374175 0.209454 -0.167466
0.0374134 0.210454 -0.167493
0.0374102 0.21094 -0.168006
0.0374282 0.205916 -0.168873
0.037407 0.211427 -0.168519
0.0374038 0.211913 -0.169032
0.0374291 0.205403 -0.169359
0.03743 0.204889 -0.169846
0.0379279 0.205391 -0.16986
0.0374006 0.2124 -0.169545
0.0373974 0.212887 -0.170058
0.0379256 0.205365 -0.17086
0.0374276 0.204863 -0.170845
0.0373942 0.213373 -0.170571
0.037391 0.21386 -0.171085
0.0379233 0.205338 -0.171859
0.0374253 0.204836 -0.171845
0.0373878 0.214346 -0.171598
0.0373846 0.214833 -0.172111
0.0379209 0.205311 -0.172859
0.037423 0.20481 -0.172845
0.0373822 0.214806 -0.17311
0.0379186 0.205285 -0.173859
0.0374206 0.204783 -0.173844
0.037379 0.215293 -0.173623
0.0373758 0.215779 -0.174137
0.0379163 0.205258 -0.174858
0.0374183 0.204756 -0.174844
0.0373726 0.216266 -0.17465
0.0373694 0.216752 -0.175163
0.0379139 0.205232 -0.175858
0.037416 0.20473 -0.175843
0.0373752 0.214726 -0.176109
0.0373744 0.215239 -0.175623
0.0373703 0.216239 -0.175649
0.0379116 0.205205 -0.176858
0.0374136 0.204703 -0.176843
0.0373729 0.2147 -0.177109
0.0374104 0.20519 -0.177356
0.0374072 0.205676 -0.177869
0.0379052 0.206178 -0.177884
0.0373746 0.213673 -0.178082
0.0373738 0.214186 -0.177595
0.0379029 0.206152 -0.178883
0.0374049 0.20565 -0.178869
0.0373805 0.211648 -0.179028
0.0373796 0.212161 -0.178542
0.0373755 0.21316 -0.178569
0.0374017 0.206136 -0.179382
0.0373985 0.206623 -0.179895
0.0378965 0.207125 -0.17991
0.0378924 0.208124 -0.179936
0.0378883 0.209124 -0.179963
0.0373863 0.209622 -0.179975
0.0373854 0.210135 -0.179488
0.0373813 0.211134 -0.179515
0.0373953 0.207109 -0.180408
0.0373912 0.208109 -0.180435
0.0373871 0.209109 -0.180461
0.0364297 0.206451 -0.167384
0.0364306 0.205938 -0.16787
0.0364256 0.207451 -0.167411
0.0364216 0.208451 -0.167437
0.0364175 0.20945 -0.167464
0.0364143 0.209937 -0.167977
0.0369123 0.210439 -0.167991
0.0364315 0.205425 -0.168357
0.0364323 0.204912 -0.168844
0.0369303 0.205414 -0.168858
0.0364111 0.210423 -0.16849
0.0364079 0.21091 -0.169003
0.0369058 0.211412 -0.169018
0.0365228 0.182407 -0.168745
0.0365237 0.181894 -0.169232
0.0370216 0.182396 -0.169246
0.0365196 0.182893 -0.169258
0.03643 0.204885 -0.169843
0.0364047 0.211396 -0.169516
0.0364006 0.212396 -0.169543
0.0363974 0.212882 -0.170056
0.0365246 0.181381 -0.169718
0.0365254 0.180867 -0.170205
0.0370234 0.181369 -0.170219
0.0370193 0.182369 -0.170246
0.0365164 0.18338 -0.169771
0.0370152 0.183369 -0.170272
0.0365132 0.183866 -0.170284
0.0364309 0.204372 -0.17033
0.0364317 0.203859 -0.170816
0.0369297 0.204361 -0.170831
0.0363942 0.213369 -0.170569
0.036391 0.213856 -0.171082
0.0365222 0.181354 -0.170718
0.0365182 0.182354 -0.170744
0.0365141 0.183353 -0.170771
0.0369274 0.204334 -0.17183
0.0364294 0.203833 -0.171816
0.0363878 0.214342 -0.171595
0.0363846 0.214829 -0.172108
0.036925 0.204308 -0.17283
0.0364271 0.203806 -0.172815
0.0363823 0.214802 -0.173108
0.0369227 0.204281 -0.17383
0.0364247 0.203779 -0.173815
0.0368779 0.215277 -0.174122
0.0363799 0.214775 -0.174108
0.0369204 0.204255 -0.174829
0.0364224 0.203753 -0.174815
0.0363767 0.215262 -0.174621