<VTKFile type="UnstructuredGrid" version="0.1" byte_order="BigEndian">
  <UnstructuredGrid>
    <Piece NumberOfPoints="24126" NumberOfCells="48248">
      <PointData>
        <DataArray type="Float64" Name="position" NumberOfComponents="3" format="ascii">
0.0536784 0.219478 -0.165047
0.0536943 0.218968 -0.165536
0.0541848 0.219477 -0.165541
0.0541662 0.220477 -0.165562
0.0536598 0.220478 -0.165069
0.0541476 0.221476 -0.165583
0.0536412 0.221477 -0.16509
0.0536385 0.221967 -0.165601
0.0536916 0.219457 -0.166047
0.053673 0.220457 -0.166068
0.0536544 0.221456 -0.16609
0.0526708 0.218502 -0.163039
0.0526867 0.217992 -0.163528
0.0531773 0.218501 -0.163533
0.0531587 0.219501 -0.163554
0.0526522 0.219502 -0.163061
0.0526495 0.219991 -0.163571
0.0527026 0.217481 -0.164017
0.0527185 0.216971 -0.164506
0.0532091 0.21748 -0.164511
0.0531905 0.21848 -0.164532
0.0531719 0.219479 -0.164554
0.0526468 0.22048 -0.164082
0.0531533 0.220479 -0.164575
0.0526441 0.220969 -0.164592
0.0527158 0.21746 -0.165017
0.0527131 0.217949 -0.165528
0.0532037 0.218459 -0.165532
0.0526414 0.221459 -0.165103
0.0526387 0.221948 -0.165613
0.0532169 0.218437 -0.166532
0.0527264 0.217928 -0.166527
0.0531983 0.219437 -0.166553
0.0531797 0.220437 -0.166575
0.0531611 0.221436 -0.166596
0.052652 0.221927 -0.166613
0.0532302 0.218416 -0.167531
0.0527396 0.217907 -0.167527
0.0532116 0.219416 -0.167553
0.053193 0.220415 -0.167574
0.0526679 0.221416 -0.167102
0.0526838 0.220906 -0.167591
0.0532434 0.218395 -0.168531
0.0527528 0.217886 -0.168527
0.0532248 0.219395 -0.168552
0.0526997 0.220395 -0.16808
0.0527156 0.219885 -0.16857
0.0527501 0.218375 -0.169037
0.0527315 0.219375 -0.169059
0.0516896 0.217484 -0.163031
0.0517055 0.216973 -0.16352
0.0521961 0.217483 -0.163524
0.051671 0.218483 -0.163052
0.0516524 0.219483 -0.163073
0.0516497 0.219972 -0.163584
0.0517188 0.216952 -0.164519
0.0516471 0.220461 -0.164095
0.0516444 0.220951 -0.164605
0.0522226 0.21744 -0.165523
0.051732 0.216931 -0.165519
0.0521482 0.221439 -0.165609
0.0516576 0.220929 -0.165605
0.0522358 0.217419 -0.166523
0.0517452 0.21691 -0.166519
0.0516549 0.221418 -0.166115
0.0516522 0.221908 -0.166626
0.052249 0.217398 -0.167523
0.0517585 0.216888 -0.167518
0.0516841 0.220887 -0.167604
0.0516681 0.221397 -0.167115
0.0522622 0.217377 -0.168522
0.0517717 0.216867 -0.168518
0.0522064 0.220375 -0.168587
0.0516973 0.220866 -0.168604
0.051769 0.217356 -0.169029
0.0517663 0.217846 -0.169539
0.0522569 0.218355 -0.169544
0.0522383 0.219355 -0.169565
0.0522197 0.220354 -0.169586
0.0517105 0.220844 -0.169604
0.0517636 0.218335 -0.17005
0.0517609 0.218824 -0.17056
0.0522515 0.219333 -0.170565
0.0522329 0.220333 -0.170586
0.0517237 0.220823 -0.170603
0.0517582 0.219313 -0.171071
0.0517396 0.220313 -0.171092
0.0506899 0.217465 -0.163043
0.0507058 0.216954 -0.163532
0.0506713 0.218464 -0.163065
0.0506527 0.219464 -0.163086
0.05065 0.219953 -0.163597
0.0507217 0.216444 -0.164022
0.0507376 0.215934 -0.164511
0.0512282 0.216443 -0.164515
0.0506473 0.220442 -0.164107
0.0506446 0.220932 -0.164618
0.0512414 0.216422 -0.165515
0.0507509 0.215912 -0.16551
0.0506579 0.22091 -0.165618
0.0512547 0.2164 -0.166514
0.0507641 0.215891 -0.16651
0.0511617 0.221398 -0.166622
0.0506711 0.220889 -0.166617
0.0512679 0.216379 -0.167514
0.0507773 0.21587 -0.16751
0.0506843 0.220868 -0.167617
0.0507746 0.216359 -0.16802
0.0507719 0.216848 -0.168531
0.0506975 0.220847 -0.168617
0.0512757 0.217336 -0.169535
0.0507852 0.216827 -0.169531
0.0507108 0.220826 -0.169616
0.0507825 0.217316 -0.170041
0.0507798 0.217806 -0.170552
0.0512704 0.218315 -0.170556
0.050724 0.220804 -0.170616
0.0507771 0.218295 -0.171062
0.0507585 0.219294 -0.171084
0.0507399 0.220294 -0.171105
0.0497088 0.216446 -0.163035
0.0497247 0.215936 -0.163524
0.0502152 0.216445 -0.163528
0.0496902 0.217446 -0.163056
0.0496716 0.218446 -0.163078
0.049653 0.219445 -0.163099
0.0496503 0.219934 -0.16361
0.0497379 0.215915 -0.164524
0.0496476 0.220424 -0.16412
0.0496449 0.220913 -0.164631
0.0497511 0.215894 -0.165523
0.0496581 0.220892 -0.16563
0.049767 0.215383 -0.166012
0.0497829 0.214873 -0.166501
0.0502735 0.215382 -0.166506
0.0496899 0.219871 -0.166609
0.049674 0.220381 -0.16612
0.0501805 0.22038 -0.166613
0.0502867 0.215361 -0.167505
0.0497962 0.214852 -0.167501
0.0496873 0.22036 -0.167119
0.0496846 0.220849 -0.16763
0.0497935 0.215341 -0.168012
0.0497908 0.21583 -0.168522
0.0502814 0.216339 -0.168527
0.0496978 0.220828 -0.16863
0.0502946 0.216318 -0.169526
0.049804 0.215809 -0.169522
0.049711 0.220807 -0.169629
0.0498013 0.216298 -0.170033
0.0497987 0.216787 -0.170543
0.0502892 0.217296 -0.170547
0.0497243 0.220785 -0.170629
0.049796 0.217276 -0.171054
0.0497774 0.218276 -0.171075
0.0497588 0.219275 -0.171097
0.0497402 0.220275 -0.171118
0.0487276 0.215428 -0.163026
0.0487435 0.214918 -0.163515
0.0492341 0.215427 -0.16352
0.048709 0.216428 -0.163048
0.0486904 0.217427 -0.163069
0.0486718 0.218427 -0.16309
0.0486691 0.218916 -0.163601
0.0491597 0.219425 -0.163605
0.0492473 0.215406 -0.164519
0.0487568 0.214896 -0.164515
0.0486664 0.219405 -0.164112
0.0486638 0.219894 -0.164622
0.0491543 0.220404 -0.164626
0.0492605 0.215384 -0.165519
0.04877 0.214875 -0.165515
0.0491675 0.220382 -0.165626
0.048677 0.219873 -0.165622
0.0487859 0.214365 -0.166004
0.0488018 0.213854 -0.166493
0.0492924 0.214364 -0.166497
0.0486902 0.219852 -0.166622
0.0493056 0.214342 -0.167497
0.048815 0.213833 -0.167493
0.049194 0.22034 -0.167626
0.0487034 0.219831 -0.167621
0.0488123 0.214322 -0.168003
0.0487937 0.215322 -0.168025
0.0487911 0.215811 -0.168535
0.0492072 0.220319 -0.168625
0.0487167 0.219809 -0.168621
0.0488256 0.214301 -0.169003
0.0488415 0.213791 -0.169492
0.0493321 0.2143 -0.169496
0.0488229 0.21479 -0.169513
0.0488043 0.21579 -0.169535
0.048714 0.220299 -0.169131
0.0487113 0.220788 -0.169642
0.0488388 0.21428 -0.170002
0.0493081 0.216278 -0.170539
0.0488175 0.215769 -0.170534
0.0487245 0.220767 -0.170642
0.0488148 0.216258 -0.171045
0.0488121 0.216747 -0.171556
0.0493027 0.217256 -0.17156
0.0492841 0.218256 -0.171581
0.0492655 0.219255 -0.171603
0.0492469 0.220255 -0.171624
0.0487377 0.220745 -0.171641
0.0488095 0.217236 -0.172066
0.0487909 0.218236 -0.172088
0.0487723 0.219235 -0.172109
0.0487537 0.220235 -0.172131
0.0477279 0.215409 -0.163039
0.0477438 0.214899 -0.163528
0.0477093 0.216409 -0.16306
0.0476907 0.217408 -0.163082
0.0476721 0.218408 -0.163103
0.0476694 0.218897 -0.163614
0.047757 0.214877 -0.164528
0.0476667 0.219386 -0.164124
0.047664 0.219875 -0.164635
0.0477702 0.214856 -0.165527
0.0476772 0.219854 -0.165635
0.0477862 0.214346 -0.166017
0.0478021 0.213835 -0.166506
0.0476905 0.219833 -0.166634
0.0478153 0.213814 -0.167505
0.0477037 0.219812 -0.167634
0.0483191 0.214302 -0.168509
0.0478285 0.213793 -0.168505
0.0483005 0.215302 -0.168531
0.0477169 0.219791 -0.168634
0.0478417 0.213772 -0.169505
0.0483137 0.215281 -0.16953
0.0477142 0.22028 -0.169144
0.0477115 0.220769 -0.169655
0.0483455 0.21426 -0.170509
0.047855 0.213751 -0.170504
0.0483269 0.215259 -0.17053
0.0477248 0.220748 -0.170655
0.0478523 0.21424 -0.171015
0.0478337 0.215239 -0.171036
0.047831 0.215729 -0.171547
0.0483216 0.216238 -0.171551
0.047738 0.220727 -0.171654
0.0478283 0.216218 -0.172058
0.0478097 0.217217 -0.172079
0.0477911 0.218217 -0.1721
0.0477725 0.219217 -0.172122
0.0477539 0.220216 -0.172143
0.0467281 0.21539 -0.163052
0.046744 0.21488 -0.163541
0.0467095 0.21639 -0.163073
0.0466909 0.217389 -0.163095
0.0466882 0.217879 -0.163605
0.0471788 0.218388 -0.16361
0.0467573 0.214859 -0.164541
0.0466856 0.218368 -0.164116
0.0466829 0.218857 -0.164626
0.0471734 0.219366 -0.164631
0.0467732 0.214348 -0.16503
0.0467891 0.213838 -0.165519
0.0472797 0.214347 -0.165523
0.0471867 0.219345 -0.16563
0.0466961 0.218836 -0.165626
0.0468023 0.213817 -0.166518
0.0471999 0.219324 -0.16663
0.0467093 0.218815 -0.166626
0.0468156 0.213795 -0.167518
0.0467066 0.219304 -0.167136
0.046704 0.219793 -0.167647
0.0468288 0.213774 -0.168518
0.0467358 0.218772 -0.168625
0.0467199 0.219282 -0.168136
0.0472264 0.219281 -0.168629
0.046842 0.213753 -0.169518
0.0467331 0.219261 -0.169136
0.0467304 0.21975 -0.169646
0.047221 0.22026 -0.169651
0.0468552 0.213732 -0.170517
0.0472342 0.220239 -0.17065
0.0467436 0.219729 -0.170646
0.0468525 0.214221 -0.171028
0.0468499 0.21471 -0.171538
0.0473404 0.215219 -0.171543
0.0467409 0.220218 -0.171157
0.0467383 0.220708 -0.171667
0.0468472 0.215199 -0.172049
0.0468445 0.215688 -0.17256
0.0473351 0.216198 -0.172564
0.0473165 0.217197 -0.172585
0.0472979 0.218197 -0.172607
0.0467887 0.218687 -0.172624
0.0467728 0.219198 -0.172135
0.0467542 0.220197 -0.172156
0.0468418 0.216178 -0.17307
0.0468232 0.217177 -0.173092
0.0468046 0.218177 -0.173113
0.045747 0.214372 -0.163043
0.0457629 0.213861 -0.163532
0.0462535 0.214371 -0.163537
0.0457284 0.215371 -0.163065
0.0457098 0.216371 -0.163086
0.0457071 0.21686 -0.163597
0.0461977 0.217369 -0.163601
0.0462667 0.214349 -0.164536
0.0457761 0.21384 -0.164532
0.0457044 0.217349 -0.164107
0.0457017 0.217838 -0.164618
0.0461923 0.218348 -0.164622
0.0457894 0.213819 -0.165532
0.045699 0.218328 -0.165128
0.0456964 0.218817 -0.165639
0.0458053 0.213308 -0.166021
0.0458212 0.212798 -0.16651
0.0463118 0.213307 -0.166514
0.0457096 0.218796 -0.166639
0.046325 0.213286 -0.167514
0.0458344 0.212777 -0.16751
0.0462134 0.219284 -0.167643
0.0457228 0.218774 -0.167638
0.0463382 0.213265 -0.168514
0.0458476 0.212756 -0.168509
0.045736 0.218753 -0.168638
0.0463514 0.213244 -0.169513
0.0458609 0.212734 -0.169509
0.0457334 0.219242 -0.169149
0.0457307 0.219732 -0.169659
0.0458768 0.212224 -0.169998
0.0458927 0.211714 -0.170487
0.0463833 0.212223 -0.170491
0.0463647 0.213222 -0.170513
0.0457439 0.21971 -0.170659
0.04589 0.212203 -0.170998
0.0458714 0.213202 -0.171019
0.0458687 0.213692 -0.17153
0.0463593 0.214201 -0.171534
0.0462477 0.220198 -0.171663
0.0457571 0.219689 -0.171658
0.045866 0.214181 -0.17204
0.0458474 0.21518 -0.172062
0.0458447 0.21567 -0.172572
0.0457889 0.218668 -0.172637
0.045773 0.219179 -0.172148
0.0463485 0.216158 -0.173576
0.045858 0.215648 -0.173572
0.0463299 0.217157 -0.173598
0.0463113 0.218157 -0.173619
0.0458022 0.218647 -0.173636
0.0458553 0.216138 -0.174083
0.0458367 0.217137 -0.174104
0.0458181 0.218137 -0.174125
0.0447473 0.214353 -0.163056
0.0447632 0.213842 -0.163545
0.0447446 0.214842 -0.163567
0.0452351 0.215351 -0.163571
0.0452165 0.216351 -0.163592
0.0447764 0.213821 -0.164545
0.0447419 0.215331 -0.164077
0.0452298 0.21633 -0.164592
0.0447392 0.21582 -0.164588
0.0447047 0.21733 -0.16412
0.0447206 0.21682 -0.164609
0.044702 0.21782 -0.164631
0.0447896 0.2138 -0.165544
0.0447365 0.21631 -0.165098
0.0452058 0.218308 -0.165635
0.0447152 0.217798 -0.16563
0.0448055 0.21329 -0.166034
0.0448214 0.212779 -0.166523
0.045219 0.218286 -0.166634
0.0447284 0.217777 -0.16663
0.0448347 0.212758 -0.167522
0.0452322 0.218265 -0.167634
0.0447417 0.217756 -0.16763
0.0448506 0.212248 -0.168011
0.0448665 0.211737 -0.168501
0.0453571 0.212246 -0.168505
0.0452455 0.218244 -0.168634
0.0447549 0.217735 -0.168629
0.0453703 0.212225 -0.169505
0.0448797 0.211716 -0.1695
0.0447522 0.218224 -0.16914
0.0447495 0.218713 -0.16965
0.0452401 0.219222 -0.169655
0.044893 0.211695 -0.1705
0.0452533 0.219201 -0.170654
0.0447628 0.218692 -0.17065
0.0453968 0.212183 -0.171504
0.0449062 0.211674 -0.1715
0.0453782 0.213182 -0.171525
0.0447601 0.219181 -0.171161
0.0447574 0.21967 -0.171671
0.0449035 0.212163 -0.17201
0.0448849 0.213162 -0.172032
0.0448822 0.213652 -0.172542
0.0453728 0.214161 -0.172547
0.0453542 0.21516 -0.172568
0.0447892 0.218649 -0.17265
0.0447733 0.21916 -0.17216
0.045386 0.21414 -0.173546
0.0448954 0.21363 -0.173542
0.0453674 0.215139 -0.173568
0.0448024 0.218628 -0.173649
0.0448927 0.214119 -0.174053
0.0448741 0.215119 -0.174074
0.0448555 0.216119 -0.174095
0.0448369 0.217118 -0.174117
0.0448183 0.218118 -0.174138
0.0437475 0.214334 -0.163069
0.0437634 0.213824 -0.163558
0.0437448 0.214823 -0.163579
0.0437793 0.213313 -0.164047
0.0437953 0.212803 -0.164536
0.0442858 0.213312 -0.16454
0.0442486 0.215311 -0.164583
0.0437581 0.214802 -0.164579
0.0442114 0.21731 -0.164626
0.0442991 0.213291 -0.16554
0.0438085 0.212782 -0.165536
0.0442619 0.21529 -0.165583
0.0437713 0.214781 -0.165579
0.0442433 0.21629 -0.165604
0.0442247 0.217289 -0.165626
0.0438217 0.21276 -0.166535
0.0437686 0.21527 -0.166089
0.04375 0.216269 -0.166111
0.0442379 0.217268 -0.166626
0.0437473 0.216759 -0.166621
0.0438349 0.212739 -0.167535
0.0442511 0.217247 -0.167625
0.0437605 0.216737 -0.167621
0.0438508 0.212229 -0.168024
0.0438668 0.211718 -0.168513
0.0442643 0.217225 -0.168625
0.0437738 0.216716 -0.168621
0.04388 0.211697 -0.169513
0.0437711 0.217205 -0.169131
0.0437684 0.217695 -0.169642
0.044259 0.218204 -0.169646
0.0438959 0.211187 -0.170002
0.0439118 0.210676 -0.170491
0.0444024 0.211185 -0.170496
0.0442722 0.218183 -0.170646
0.0437816 0.217673 -0.170642
0.0439091 0.211165 -0.171002
0.0439064 0.211655 -0.171512
0.0437789 0.218163 -0.171152
0.0437762 0.218652 -0.171663
0.0442668 0.219161 -0.171667
0.0439038 0.212144 -0.172023
0.0439011 0.212633 -0.172534
0.0443916 0.213142 -0.172538
0.0437895 0.218631 -0.172662
0.0438984 0.213122 -0.173044
0.0438957 0.213611 -0.173555
0.0438213 0.21761 -0.173641
0.0438054 0.21812 -0.173151
0.0443119 0.218119 -0.173645
0.043893 0.214101 -0.174065
0.0438744 0.2151 -0.174087
0.0438558 0.2161 -0.174108
0.0438372 0.217099 -0.17413
0.0432543 0.214314 -0.163575
0.0427796 0.213294 -0.16406
0.0427955 0.212784 -0.164549
0.042761 0.214294 -0.164081
0.0427583 0.214783 -0.164592
0.0428114 0.212273 -0.165038
0.0428273 0.211763 -0.165527
0.0433179 0.212272 -0.165531
0.0427715 0.214762 -0.165592
0.0433311 0.212251 -0.166531
0.0428406 0.211742 -0.166527
0.0432753 0.21525 -0.166596
0.0427848 0.214741 -0.166591
0.0432567 0.216249 -0.166617
0.0428565 0.211231 -0.167016
0.0428724 0.210721 -0.167505
0.043363 0.21123 -0.167509
0.0433444 0.21223 -0.167531
0.0427821 0.21523 -0.167102
0.04327 0.216228 -0.167617
0.0427794 0.215719 -0.167612
0.0433762 0.211209 -0.168509
0.0428856 0.2107 -0.168505
0.0432832 0.216207 -0.168616
0.0427926 0.215698 -0.168612
0.0433894 0.211188 -0.169509
0.0428988 0.210679 -0.169504
0.0427899 0.216187 -0.169123
0.0427872 0.216676 -0.169633
0.0432778 0.217185 -0.169638
0.0429121 0.210657 -0.170504
0.0427846 0.217165 -0.170144
0.0427819 0.217655 -0.170654
0.0434159 0.211145 -0.171508
0.0429253 0.210636 -0.171504
0.0432857 0.218143 -0.171658
0.0427951 0.217633 -0.171654
0.0429226 0.211125 -0.172014
0.0429199 0.211615 -0.172525
0.0434105 0.212124 -0.172529
0.0432989 0.218121 -0.172658
0.0428083 0.217612 -0.172654
0.0434237 0.212103 -0.173529
0.0429332 0.211593 -0.173525
0.0434051 0.213102 -0.17355
0.0428402 0.216591 -0.173632
0.0428242 0.217102 -0.173143
0.0433307 0.217101 -0.173636
0.0429305 0.212083 -0.174035
0.0429278 0.212572 -0.174546
0.0434184 0.213081 -0.17455
0.0433998 0.214081 -0.174572
0.0433812 0.21508 -0.174593
0.042872 0.215571 -0.17461
0.0428561 0.216081 -0.174121
0.0429251 0.213061 -0.175056
0.0429065 0.214061 -0.175078
0.0428879 0.21506 -0.175099
0.0422863 0.213274 -0.164566
0.0422677 0.214274 -0.164588
0.0418303 0.211255 -0.165029
0.0418462 0.210745 -0.165519
0.0423368 0.211254 -0.165523
0.0418117 0.212255 -0.165051
0.0417931 0.213254 -0.165072
0.0417745 0.214254 -0.165094
0.0417718 0.214743 -0.165604
0.04235 0.211233 -0.166523
0.0418594 0.210723 -0.166518
0.041785 0.214722 -0.166604
0.0418727 0.210702 -0.167518
0.0422888 0.21521 -0.167608
0.0417983 0.214701 -0.167604
0.0418886 0.210192 -0.168007
0.0419045 0.209681 -0.168496
0.0423951 0.210191 -0.1685
0.0417956 0.21519 -0.168114
0.0417929 0.215679 -0.168625
0.0424083 0.210169 -0.1695
0.0419177 0.20966 -0.169496
0.0422967 0.216167 -0.169629
0.0418061 0.215658 -0.169625
0.0424215 0.210148 -0.1705
0.0419309 0.209639 -0.170496
0.0418034 0.216147 -0.170135
0.0418007 0.216636 -0.170646
0.0422913 0.217145 -0.17065
0.0424347 0.210127 -0.1715
0.0419442 0.209618 -0.171495
0.0417981 0.217125 -0.171156
0.0417954 0.217614 -0.171667
0.0419415 0.210107 -0.172006
0.0419388 0.210596 -0.172516
0.0424294 0.211105 -0.172521
0.0418272 0.216594 -0.172645
0.0418113 0.217104 -0.172156
0.0423178 0.217103 -0.172649
0.0424426 0.211084 -0.17352
0.041952 0.210575 -0.173516
0.0418404 0.216572 -0.173645
0.0419493 0.211064 -0.174027
0.0419466 0.211553 -0.174537
0.0424372 0.212063 -0.174542
0.0418722 0.215552 -0.174623
0.0418563 0.216062 -0.174134
0.041944 0.212042 -0.175048
0.0419254 0.213042 -0.175069
0.0419068 0.214042 -0.175091
0.0418882 0.215041 -0.175112
0.0408305 0.211236 -0.165042
0.0408465 0.210726 -0.165531
0.0408119 0.212236 -0.165064
0.0408093 0.212725 -0.165574
0.0412998 0.213234 -0.165579
0.0412812 0.214234 -0.1656
0.0408624 0.210215 -0.166021
0.0408783 0.209705 -0.16651
0.0413689 0.210214 -0.166514
0.0408066 0.213214 -0.166085
0.0412945 0.214212 -0.1666
0.0408039 0.213703 -0.166595
0.0413821 0.210193 -0.167514
0.0408915 0.209684 -0.167509
0.0413077 0.214191 -0.167599
0.0408171 0.213682 -0.167595
0.0409074 0.209173 -0.167998
0.0409233 0.208663 -0.168488
0.0414139 0.209172 -0.168492
0.0408144 0.214171 -0.168106
0.0408117 0.21466 -0.168616
0.0413023 0.21517 -0.168621
0.0414271 0.209151 -0.169492
0.0409366 0.208642 -0.169487
0.0408091 0.21515 -0.169127
0.0408064 0.215639 -0.169637
0.0414404 0.20913 -0.170491
0.0409498 0.20862 -0.170487
0.0413102 0.216127 -0.170641
0.0408196 0.215618 -0.170637
0.0414536 0.209108 -0.171491
0.040963 0.208599 -0.171487
0.0413234 0.216106 -0.171641
0.0408328 0.215596 -0.171637
0.0413048 0.217105 -0.171663
0.0409603 0.209088 -0.171997
0.0409577 0.209578 -0.172508
0.0414482 0.210087 -0.172512
0.0408301 0.216086 -0.172147
0.0408275 0.216575 -0.172658
0.0414614 0.210066 -0.173512
0.0409709 0.209556 -0.173507
0.0408593 0.215554 -0.173636
0.0408434 0.216064 -0.173147
0.0413498 0.216063 -0.17364
0.0409682 0.210046 -0.174018
0.0409655 0.210535 -0.174529
0.0414561 0.211044 -0.174533
0.0408725 0.215533 -0.174636
0.0409628 0.211024 -0.175039
0.0409601 0.211513 -0.17555
0.0414507 0.212022 -0.175554
0.0414321 0.213022 -0.175575
0.0414135 0.214022 -0.175597
0.0409043 0.214512 -0.175614
0.0408884 0.215022 -0.175125
0.0409574 0.212002 -0.17606
0.0409388 0.213002 -0.176082
0.0409202 0.214002 -0.176103
0.0398494 0.210218 -0.165034
0.0398653 0.209707 -0.165523
0.0403559 0.210216 -0.165527
0.0398308 0.211217 -0.165055
0.0398281 0.211706 -0.165566
0.0403187 0.212216 -0.16557
0.0398812 0.209197 -0.166012
0.0398972 0.208686 -0.166501
0.0403877 0.209196 -0.166505
0.0398254 0.212196 -0.166076
0.0398228 0.212685 -0.166587
0.0403133 0.213194 -0.166591
0.0404009 0.209174 -0.167505
0.0399104 0.208665 -0.167501
0.0403265 0.213173 -0.167591
0.039836 0.212664 -0.167586
0.0399236 0.208644 -0.1685
0.0398333 0.213153 -0.168097
0.0398306 0.213642 -0.168608
0.0403212 0.214151 -0.168612
0.0399368 0.208623 -0.1695
0.0403344 0.21413 -0.169612
0.0398438 0.213621 -0.169607
0.0403158 0.21513 -0.169633
0.0399501 0.208602 -0.1705
0.0398411 0.21411 -0.170118
0.0398225 0.21511 -0.170139
0.0398199 0.215599 -0.17065
0.0399633 0.20858 -0.171499
0.0398331 0.215578 -0.17165
0.0404671 0.209068 -0.172503
0.0399765 0.208559 -0.172499
0.0403369 0.216066 -0.172654
0.0398463 0.215556 -0.172649
0.0404803 0.209047 -0.173503
0.0399897 0.208538 -0.173499
0.0398595 0.215535 -0.173649
0.0404935 0.209026 -0.174503
0.040003 0.208517 -0.174498
0.0404749 0.210026 -0.174524
0.0398728 0.215514 -0.174649
0.0400003 0.209006 -0.175009
0.0399976 0.209495 -0.17552
0.0404882 0.210004 -0.175524
0.0404696 0.211004 -0.175545
0.0399046 0.214493 -0.175627
0.0398887 0.215003 -0.175138
0.0399949 0.209984 -0.17603
0.0399763 0.210984 -0.176052
0.0399736 0.211473 -0.176562
0.0404642 0.211982 -0.176567
0.0404456 0.212982 -0.176588
0.0399364 0.213472 -0.176605
0.0399205 0.213983 -0.176116
0.0399709 0.211962 -0.177073
0.0399523 0.212962 -0.177094
0.0388497 0.210199 -0.165046
0.0388656 0.209688 -0.165536
0.038847 0.210688 -0.165557
0.0393376 0.211197 -0.165561
0.0388815 0.209178 -0.166025
0.0388974 0.208668 -0.166514
0.0388443 0.211177 -0.166068
0.0388416 0.211666 -0.166578
0.0393322 0.212176 -0.166582
0.0389133 0.208157 -0.167003
0.0389292 0.207647 -0.167492
0.0394198 0.208156 -0.167496
0.0388389 0.212156 -0.167089
0.0388362 0.212645 -0.167599
0.039433 0.208135 -0.168496
0.0389425 0.207626 -0.168492
0.0388336 0.213134 -0.16811
0.0388309 0.213623 -0.16862
0.0394463 0.208114 -0.169496
0.0389557 0.207604 -0.169491
0.0388441 0.213602 -0.16962
0.0394595 0.208092 -0.170495
0.0389689 0.207583 -0.170491
0.0388414 0.214091 -0.170131
0.0388387 0.21458 -0.170641
0.0393293 0.215089 -0.170646
0.0394727 0.208071 -0.171495
0.0389821 0.207562 -0.171491
0.038836 0.215069 -0.171152
0.0388333 0.215559 -0.171662
0.0394859 0.20805 -0.172495
0.0389954 0.207541 -0.17249
0.0388466 0.215537 -0.172662
0.0394992 0.208029 -0.173494
0.0390086 0.207519 -0.17349
0.0388598 0.215516 -0.173662
0.0395124 0.208007 -0.174494
0.0390218 0.207498 -0.17449
0.038873 0.215495 -0.174661
0.0390191 0.207987 -0.175
0.0390165 0.208477 -0.175511
0.039507 0.208986 -0.175515
0.0389049 0.214474 -0.17564
0.0388889 0.214985 -0.175151
0.0390138 0.208966 -0.176022
0.0390111 0.209455 -0.176532
0.0395016 0.209964 -0.176536
0.039483 0.210964 -0.176558
0.0389367 0.213453 -0.176618
0.0389208 0.213964 -0.176129
0.0390084 0.209944 -0.177043
0.0389898 0.210944 -0.177064
0.0389712 0.211943 -0.177086
0.0389526 0.212943 -0.177107
0.0383564 0.210179 -0.165553
0.0379004 0.208159 -0.166016
0.0379163 0.207649 -0.166505
0.0384068 0.208158 -0.16651
0.0378818 0.209159 -0.166038
0.0378632 0.210159 -0.166059
0.0378605 0.210648 -0.16657
0.038351 0.211157 -0.166574
0.0379295 0.207628 -0.167505
0.0378578 0.211137 -0.16708
0.0378551 0.211626 -0.167591
0.0383457 0.212135 -0.167595
0.0379427 0.207607 -0.168505
0.0378524 0.212115 -0.168101
0.0378497 0.212605 -0.168612
0.0383403 0.213114 -0.168616
0.0379586 0.207096 -0.168994
0.0379746 0.206586 -0.169483
0.0384651 0.207095 -0.169487
0.037847 0.213094 -0.169122
0.0378444 0.213583 -0.169633
0.0384783 0.207074 -0.170487
0.0379878 0.206565 -0.170482
0.0378417 0.214072 -0.170144
0.037839 0.214561 -0.170654
0.0384916 0.207053 -0.171486
0.038001 0.206543 -0.171482
0.0383428 0.215049 -0.171658
0.0378522 0.21454 -0.171654
0.0385048 0.207031 -0.172486
0.0380142 0.206522 -0.172482
0.0378495 0.215029 -0.172164
0.0378468 0.215519 -0.172675
0.038518 0.20701 -0.173486
0.0380275 0.206501 -0.173482
0.0378601 0.215497 -0.173675
0.0380248 0.20699 -0.173992
0.0380221 0.207479 -0.174503
0.0378733 0.215476 -0.174674
0.0385259 0.207967 -0.175507
0.0380353 0.207458 -0.175502
0.0379051 0.214455 -0.175653
0.0378892 0.214966 -0.175163
0.0385391 0.207946 -0.176506
0.0380485 0.207437 -0.176502
0.0385205 0.208946 -0.176528
0.0379369 0.213435 -0.176631
0.037921 0.213945 -0.176142
0.0380459 0.207926 -0.177013
0.0380432 0.208415 -0.177523
0.0385337 0.208925 -0.177528
0.0385151 0.209924 -0.177549
0.0384965 0.210924 -0.17757
0.0379874 0.211414 -0.177588
0.0379715 0.211925 -0.177098
0.0379529 0.212924 -0.17712
0.0380405 0.208905 -0.178034
0.0380219 0.209904 -0.178055
0.0380033 0.210904 -0.178077
0.0369006 0.208141 -0.166029
0.0369165 0.20763 -0.166518
0.036882 0.20914 -0.16605
0.0368793 0.209629 -0.166561
0.0373699 0.210139 -0.166565
0.0369324 0.20712 -0.167007
0.0369484 0.206609 -0.167496
0.0374389 0.207119 -0.167501
0.0368766 0.210119 -0.167071
0.036858 0.211118 -0.167093
0.0368554 0.211607 -0.167604
0.0374522 0.207097 -0.1685
0.0369616 0.206588 -0.168496
0.0368527 0.212097 -0.168114
0.03685 0.212586 -0.168625
0.0369748 0.206567 -0.169496
0.0373538 0.213074 -0.169629
0.0368632 0.212565 -0.169624
0.036988 0.206546 -0.170495
0.0368605 0.213054 -0.170135
0.0368578 0.213543 -0.170645
0.0373484 0.214052 -0.17065
0.037004 0.206035 -0.170984
0.0370199 0.205525 -0.171474
0.0375104 0.206034 -0.171478
0.0368552 0.214032 -0.171156
0.0368525 0.214521 -0.171667
0.0375237 0.206013 -0.172478
0.0370331 0.205504 -0.172473
0.0373563 0.215009 -0.172671
0.0368657 0.2145 -0.172666
0.0375369 0.205992 -0.173477
0.0370463 0.205483 -0.173473
0.036863 0.214989 -0.173177
0.0368603 0.215478 -0.173687
0.0370436 0.205972 -0.173983
0.0370409 0.206461 -0.174494
0.0375315 0.20697 -0.174498
0.0368735 0.215457 -0.174687
0.0375447 0.206949 -0.175498
0.0370542 0.20644 -0.175494
0.0369054 0.214436 -0.175665
0.0368895 0.214947 -0.175176
0.037558 0.206928 -0.176498
0.0370674 0.206418 -0.176493
0.0374278 0.213925 -0.176648
0.0369186 0.214415 -0.176665
0.0370647 0.206908 -0.177004
0.037062 0.207397 -0.177515
0.0375526 0.207906 -0.177519
0.0374782 0.211904 -0.177605
0.0374596 0.212904 -0.177626
0.0369504 0.213394 -0.177643
0.0369345 0.213905 -0.177154
0.0370593 0.207886 -0.178025
0.0370567 0.208375 -0.178536
0.0375472 0.208884 -0.17854
0.0370381 0.209375 -0.178557
0.0370221 0.209885 -0.178068
0.0370035 0.210885 -0.17809
0.0369849 0.211884 -0.178111
0.0369663 0.212884 -0.178132
0.037054 0.208864 -0.179046
0.0359009 0.208122 -0.166042
0.0359168 0.207611 -0.166531
0.0358982 0.208611 -0.166552
0.0363888 0.20912 -0.166557
0.0359327 0.207101 -0.16702
0.0359486 0.20659 -0.167509
0.0358955 0.2091 -0.167063
0.0358769 0.2101 -0.167084
0.0358742 0.210589 -0.167595
0.0363648 0.211098 -0.167599
0.0359645 0.20608 -0.167998
0.0359804 0.20557 -0.168487
0.036471 0.206079 -0.168492
0.0358715 0.211078 -0.168105
0.0358688 0.211567 -0.168616
0.0363594 0.212076 -0.16862
0.0364842 0.206058 -0.169491
0.0359937 0.205548 -0.169487
0.0358662 0.212056 -0.169127
0.0358635 0.212546 -0.169637
0.0364975 0.206036 -0.170491
0.0360069 0.205527 -0.170487
0.0358608 0.213035 -0.170148
0.0358581 0.213524 -0.170658
0.0360201 0.205506 -0.171486
0.0358554 0.214013 -0.171169
0.0358527 0.214502 -0.171679
0.0360334 0.205485 -0.172486
0.035866 0.214481 -0.172679
0.0360466 0.205464 -0.173486
0.0358633 0.21497 -0.17319
0.0358606 0.21546 -0.1737
0.0365504 0.205952 -0.17449
0.0360598 0.205442 -0.174485
0.0363644 0.215948 -0.174704
0.0358579 0.215949 -0.174211
0.0358552 0.216438 -0.174721
0.0365636 0.20593 -0.175489
0.036073 0.205421 -0.175485
0.0359056 0.214418 -0.175678
0.0358897 0.214928 -0.175189
0.0358711 0.215928 -0.175211
0.0365768 0.205909 -0.176489
0.0360863 0.2054 -0.176485
0.0359189 0.214396 -0.176678
0.0360836 0.205889 -0.176995
0.0360809 0.206378 -0.177506
0.0365715 0.206888 -0.17751
0.0359507 0.213376 -0.177656
0.0359348 0.213886 -0.177167
0.0365847 0.206866 -0.17851
0.0360941 0.206357 -0.178506
0.0365661 0.207866 -0.178531
0.0365289 0.209865 -0.178574
0.0365103 0.210865 -0.178596
0.0360011 0.211355 -0.178613
0.0359852 0.211866 -0.178124
0.0359666 0.212865 -0.178145
0.0360914 0.206846 -0.179016
0.0360728 0.207846 -0.179038
0.0360542 0.208846 -0.179059
0.0360356 0.209845 -0.179081
0.036017 0.210845 -0.179102
0.0354076 0.208102 -0.166548
0.0349516 0.206082 -0.167011
0.0349675 0.205572 -0.1675
0.035458 0.206081 -0.167505
0.034933 0.207082 -0.167033
0.0349144 0.208082 -0.167054
0.0348958 0.209081 -0.167076
0.0348772 0.210081 -0.167097
0.0348745 0.21057 -0.167608
0.0349807 0.205551 -0.1685
0.0348718 0.211059 -0.168118
0.0348691 0.211548 -0.168629
0.0349966 0.20504 -0.168989
0.0350125 0.20453 -0.169478
0.0355031 0.205039 -0.169483
0.0348664 0.212038 -0.169139
0.0348637 0.212527 -0.16965
0.0355163 0.205018 -0.170482
0.0350258 0.204509 -0.170478
0.034861 0.213016 -0.170161
0.0348584 0.213505 -0.170671
0.0355296 0.204997 -0.171482
0.035039 0.204488 -0.171478
0.0348557 0.213994 -0.171182
0.034853 0.214484 -0.171692
0.0355428 0.204976 -0.172482
0.0350522 0.204466 -0.172477
0.0348662 0.214462 -0.172692
0.035556 0.204954 -0.173481
0.0350654 0.204445 -0.173477
0.0348635 0.214952 -0.173203
0.0348608 0.215441 -0.173713
0.0355692 0.204933 -0.174481
0.0350787 0.204424 -0.174477
0.0348582 0.21593 -0.174224
0.0348555 0.216419 -0.174734
0.0355825 0.204912 -0.175481
0.0350919 0.204403 -0.175477
0.0349059 0.214399 -0.175691
0.03489 0.214909 -0.175202
0.0348714 0.215909 -0.175223
0.0355957 0.204891 -0.176481
0.0351051 0.204382 -0.176476
0.0349191 0.214377 -0.176691
0.0351024 0.204871 -0.176987
0.0350997 0.20536 -0.177497
0.0355903 0.205869 -0.177502
0.0349509 0.213357 -0.177669
0.034935 0.213867 -0.17718
0.0356035 0.205848 -0.178501
0.035113 0.205339 -0.178497
0.0350014 0.211336 -0.178626
0.0349855 0.211847 -0.178137
0.0349669 0.212846 -0.178158
0.0351103 0.205828 -0.179008
0.0351076 0.206317 -0.179518
0.0355982 0.206826 -0.179522
0.0355796 0.207826 -0.179544
0.035561 0.208826 -0.179565
0.0350518 0.209316 -0.179583
0.0350359 0.209826 -0.179093
0.0350173 0.210826 -0.179115
0.0351049 0.206806 -0.180029
0.0350863 0.207806 -0.18005
0.0350677 0.208805 -0.180072
0.0339518 0.206064 -0.167024
0.0339677 0.205553 -0.167513
0.0339332 0.207063 -0.167046
0.0339146 0.208063 -0.167067
0.033896 0.209062 -0.167089
0.0338933 0.209552 -0.167599
0.0343839 0.210061 -0.167603
0.0339837 0.205043 -0.168002
0.0339996 0.204532 -0.168492
0.0344901 0.205042 -0.168496
0.0338907 0.210041 -0.16811
0.033888 0.21053 -0.16862
0.0343785 0.211039 -0.168625
0.0344247 0.182031 -0.168509
0.0344406 0.18152 -0.168998
0.0349312 0.18203 -0.169002
0.034422 0.18252 -0.169019
0.0340128 0.204511 -0.169491
0.0338853 0.211019 -0.169131
0.0338667 0.212019 -0.169152
0.033864 0.212508 -0.169663
0.0344565 0.18101 -0.169487
0.0344724 0.1805 -0.169976
0.034963 0.181009 -0.16998
0.0349444 0.182008 -0.170002
0.0344193 0.183009 -0.16953
0.0349258 0.183008 -0.170023
0.0344166 0.183498 -0.17004
0.0340287 0.204001 -0.16998
0.0340446 0.20349 -0.170469
0.0345352 0.204 -0.170474
0.0338613 0.212997 -0.170173
0.0338586 0.213486 -0.170684
0.0344697 0.180989 -0.170487
0.0344511 0.181988 -0.170508
0.0344325 0.182988 -0.170529
0.0345484 0.203978 -0.171473
0.0340578 0.203469 -0.171469
0.0338559 0.213975 -0.171195
0.0338532 0.214465 -0.171705
0.0345616 0.203957 -0.172473
0.0340711 0.203448 -0.172469
0.0338665 0.214443 -0.172705
0.0345749 0.203936 -0.173473
0.0340843 0.203427 -0.173468
0.0343703 0.214931 -0.173709
0.0338797 0.214422 -0.173704
0.0345881 0.203915 -0.174473
0.0340975 0.203405 -0.174468