<VTKFile type="UnstructuredGrid" version="0.1" byte_order="BigEndian">
  <UnstructuredGrid>
    <Piece NumberOfPoints="24126" NumberOfCells="48248">
      <PointData>
        <DataArray type="Float64" Name="position" NumberOfComponents="3" format="ascii">
0.0583115 0.218018 -0.166277
0.0583006 0.217508 -0.166767
0.0588047 0.218004 -0.166783
0.0588129 0.219004 -0.166802
0.0583198 0.219018 -0.166296
0.0588211 0.220004 -0.166821
0.058328 0.220017 -0.166315
0.0583253 0.220508 -0.166824
0.058298 0.217999 -0.167276
0.0583062 0.218999 -0.167295
0.0583144 0.219998 -0.167314
0.0573306 0.217064 -0.164245
0.0573197 0.216555 -0.164735
0.0578238 0.217051 -0.164751
0.057832 0.21805 -0.16477
0.0573388 0.218064 -0.164264
0.0573362 0.218554 -0.164773
0.0573088 0.216046 -0.165225
0.0572979 0.215536 -0.165716
0.057802 0.216032 -0.165732
0.0578102 0.217032 -0.165751
0.0578184 0.218031 -0.16577
0.0573335 0.219045 -0.165283
0.0578266 0.219031 -0.165789
0.0573308 0.219535 -0.165792
0.0572952 0.216027 -0.166225
0.0572926 0.216517 -0.166735
0.0577966 0.217013 -0.166751
0.0573281 0.220026 -0.166301
0.0573254 0.220516 -0.166811
0.057783 0.216994 -0.167751
0.057279 0.216498 -0.167734
0.0577912 0.217994 -0.16777
0.0577994 0.218993 -0.167789
0.0578077 0.219993 -0.167808
0.0573118 0.220497 -0.16781
0.0577694 0.216975 -0.16875
0.0572654 0.216479 -0.168734
0.0577776 0.217975 -0.168769
0.0577859 0.218974 -0.168788
0.0573009 0.219988 -0.168301
0.05729 0.219479 -0.168791
0.0577558 0.216956 -0.16975
0.0572518 0.21646 -0.169734
0.0577641 0.217956 -0.169769
0.0572791 0.218969 -0.169281
0.0572682 0.21846 -0.169772
0.0572491 0.216951 -0.170243
0.0572573 0.217951 -0.170262
0.0563225 0.216073 -0.164212
0.0563116 0.215564 -0.164703
0.0568157 0.216059 -0.164719
0.0563307 0.217073 -0.164231
0.056339 0.218072 -0.16425
0.0563363 0.218563 -0.16476
0.056298 0.215545 -0.165702
0.0563336 0.219053 -0.165269
0.0563309 0.219544 -0.165778
0.0567885 0.216021 -0.166718
0.0562845 0.215526 -0.166702
0.0568214 0.220021 -0.166794
0.0563173 0.219525 -0.166778
0.0567749 0.216002 -0.167718
0.0562709 0.215507 -0.167702
0.0563146 0.220015 -0.167288
0.056312 0.220506 -0.167797
0.0567613 0.215984 -0.168718
0.0562573 0.215488 -0.168702
0.0562902 0.219487 -0.168778
0.0563011 0.219996 -0.168287
0.0567478 0.215965 -0.169718
0.0562437 0.215469 -0.169701
0.0567724 0.218964 -0.169775
0.0562766 0.219468 -0.169777
0.056241 0.215959 -0.170211
0.0562383 0.21645 -0.17072
0.0567424 0.216946 -0.170736
0.0567506 0.217945 -0.170755
0.0567588 0.218945 -0.170774
0.056263 0.219449 -0.170777
0.0562357 0.21694 -0.171229
0.056233 0.217431 -0.171739
0.056737 0.217926 -0.171755
0.0567452 0.218926 -0.171774
0.0562494 0.21943 -0.171777
0.0562303 0.217921 -0.172248
0.0562385 0.218921 -0.172267
0.0553227 0.216081 -0.164199
0.0553118 0.215572 -0.164689
0.0553309 0.217081 -0.164218
0.0553391 0.218081 -0.164237
0.0553364 0.218571 -0.164746
0.0553009 0.215063 -0.16518
0.05529 0.214553 -0.16567
0.055794 0.215049 -0.165686
0.0553337 0.219062 -0.165256
0.055331 0.219552 -0.165765
0.0557804 0.21503 -0.166686
0.0552764 0.214534 -0.16667
0.0553175 0.219533 -0.166765
0.0557668 0.215011 -0.167686
0.0552628 0.214516 -0.167669
0.0558079 0.22001 -0.167781
0.0553039 0.219514 -0.167765
0.0557532 0.214992 -0.168685
0.0552492 0.214497 -0.168669
0.0552903 0.219496 -0.168764
0.0552465 0.214987 -0.169179
0.0552438 0.215477 -0.169688
0.0552767 0.219477 -0.169764
0.0557343 0.215954 -0.170704
0.0552302 0.215459 -0.170688
0.0552631 0.219458 -0.170764
0.0552276 0.215949 -0.171197
0.0552249 0.216439 -0.171706
0.0557289 0.216935 -0.171723
0.0552495 0.219439 -0.171763
0.0552222 0.21693 -0.172216
0.0552304 0.21793 -0.172235
0.0552386 0.218929 -0.172254
0.0543146 0.21509 -0.164166
0.0543037 0.214581 -0.164657
0.0548077 0.215076 -0.164673
0.0543228 0.21609 -0.164185
0.054331 0.21709 -0.164204
0.0543392 0.218089 -0.164224
0.0543365 0.21858 -0.164733
0.0542901 0.214562 -0.165657
0.0543338 0.21907 -0.165242
0.0543312 0.219561 -0.165752
0.0542765 0.214543 -0.166656
0.0543176 0.219542 -0.166751
0.0542656 0.214034 -0.167147
0.0542547 0.213524 -0.167637
0.0547587 0.21402 -0.167653
0.0542958 0.218523 -0.167732
0.0543067 0.219032 -0.167242
0.0547998 0.219019 -0.167748
0.0547452 0.214001 -0.168653
0.0542411 0.213505 -0.168637
0.0542931 0.219014 -0.168241
0.0542904 0.219504 -0.168751
0.0542384 0.213996 -0.169146
0.0542357 0.214486 -0.169655
0.0547398 0.214982 -0.169672
0.0542768 0.219485 -0.169751
0.0547262 0.214963 -0.170671
0.0542222 0.214467 -0.170655
0.0542632 0.219466 -0.17075
0.0542195 0.214958 -0.171165
0.0542168 0.215448 -0.171674
0.0547208 0.215944 -0.17169
0.0542497 0.219447 -0.17175
0.0542141 0.215939 -0.172183
0.0542223 0.216938 -0.172202
0.0542305 0.217938 -0.172221
0.0542388 0.218938 -0.17224
0.0533065 0.214099 -0.164134
0.0532956 0.213589 -0.164624
0.0537996 0.214085 -0.164641
0.0533147 0.215099 -0.164153
0.0533229 0.216098 -0.164172
0.0533311 0.217098 -0.164191
0.0533284 0.217589 -0.1647
0.0538325 0.218084 -0.164717
0.053786 0.214066 -0.16564
0.053282 0.213571 -0.165624
0.0533258 0.218079 -0.16521
0.0533231 0.218569 -0.165719
0.0538271 0.219065 -0.165735
0.0537725 0.214047 -0.16664
0.0532684 0.213552 -0.166624
0.0538135 0.219046 -0.166735
0.0533095 0.218551 -0.166719
0.0532575 0.213042 -0.167114
0.0532466 0.212533 -0.167605
0.0537506 0.213029 -0.167621
0.0532959 0.218532 -0.167719
0.0537371 0.21301 -0.16862
0.053233 0.212514 -0.168604
0.0537864 0.219008 -0.168735
0.0532823 0.218513 -0.168718
0.0532303 0.213004 -0.169114
0.0532386 0.214004 -0.169133
0.0532359 0.214495 -0.169642
0.0537728 0.218989 -0.169734
0.0532687 0.218494 -0.169718
0.0532168 0.212986 -0.170113
0.0532058 0.212476 -0.170604
0.0537099 0.212972 -0.17062
0.0532141 0.213476 -0.170623
0.0532223 0.214476 -0.170642
0.0532661 0.218984 -0.170227
0.0532634 0.219475 -0.170737
0.0532032 0.212967 -0.171113
0.0537127 0.214952 -0.171658
0.0532087 0.214457 -0.171641
0.0532498 0.219456 -0.171737
0.053206 0.214947 -0.172151
0.0532033 0.215438 -0.17266
0.0537074 0.215933 -0.172676
0.0537156 0.216933 -0.172695
0.0537238 0.217933 -0.172714
0.053732 0.218933 -0.172734
0.0532362 0.219437 -0.172736
0.0532006 0.215928 -0.17317
0.0532089 0.216928 -0.173189
0.0532171 0.217928 -0.173208
0.0532253 0.218927 -0.173227
0.0523066 0.214107 -0.164121
0.0522957 0.213598 -0.164611
0.0523148 0.215107 -0.16414
0.052323 0.216107 -0.164159
0.0523313 0.217107 -0.164178
0.0523286 0.217597 -0.164687
0.0522821 0.213579 -0.165611
0.0523259 0.218087 -0.165196
0.0523232 0.218578 -0.165706
0.0522685 0.21356 -0.16661
0.0523096 0.218559 -0.166705
0.0522576 0.213051 -0.167101
0.0522467 0.212541 -0.167591
0.052296 0.21854 -0.167705
0.0522331 0.212522 -0.168591
0.0522824 0.218521 -0.168705
0.0527236 0.212999 -0.169607
0.0522196 0.212504 -0.169591
0.0527318 0.213999 -0.169626
0.0522689 0.218502 -0.169705
0.052206 0.212485 -0.17059
0.0527182 0.21398 -0.170626
0.0522662 0.218993 -0.170214
0.0522635 0.219483 -0.170723
0.0526964 0.212961 -0.171606
0.0521924 0.212466 -0.17159
0.0527047 0.213961 -0.171625
0.0522499 0.219464 -0.171723
0.0521897 0.212956 -0.172099
0.0521979 0.213956 -0.172118
0.0521952 0.214446 -0.172628
0.0526993 0.214942 -0.172644
0.0522363 0.219445 -0.172723
0.0521926 0.214937 -0.173137
0.0522008 0.215937 -0.173156
0.052209 0.216936 -0.173175
0.0522172 0.217936 -0.173194
0.0522254 0.218936 -0.173213
0.0513067 0.214116 -0.164107
0.0512958 0.213606 -0.164597
0.0513149 0.215115 -0.164126
0.0513232 0.216115 -0.164145
0.0513205 0.216606 -0.164655
0.0518245 0.217101 -0.164671
0.0512822 0.213587 -0.165597
0.0513178 0.217096 -0.165164
0.0513151 0.217587 -0.165673
0.0518192 0.218082 -0.16569
0.0512713 0.213078 -0.166088
0.0512604 0.212569 -0.166578
0.0517645 0.213064 -0.166594
0.0518056 0.218063 -0.166689
0.0513015 0.217568 -0.166673
0.0512469 0.21255 -0.167578
0.051792 0.218044 -0.167689
0.0512879 0.217549 -0.167673
0.0512333 0.212531 -0.168577
0.0512853 0.218039 -0.168182
0.0512826 0.21853 -0.168692
0.0512197 0.212512 -0.169577
0.0512608 0.217511 -0.169672
0.0512717 0.21802 -0.169182
0.0517648 0.218007 -0.169688
0.0512061 0.212493 -0.170577
0.0512581 0.218001 -0.170182
0.0512554 0.218492 -0.170691
0.0517594 0.218987 -0.170707
0.0511925 0.212474 -0.171577
0.0517459 0.218969 -0.171707
0.0512418 0.218473 -0.171691
0.0511898 0.212965 -0.172086
0.0511871 0.213455 -0.172595
0.0516912 0.213951 -0.172612
0.0512391 0.218963 -0.1722
0.0512365 0.219454 -0.172709
0.0511845 0.213946 -0.173105
0.0511818 0.214436 -0.173614
0.0516858 0.214932 -0.17363
0.051694 0.215931 -0.173649
0.0517023 0.216931 -0.173668
0.0512064 0.217435 -0.173671
0.0512173 0.217945 -0.173181
0.0512255 0.218944 -0.1732
0.0511791 0.214926 -0.174123
0.0511873 0.215926 -0.174142
0.0511955 0.216926 -0.174161
0.0502986 0.213124 -0.164075
0.0502877 0.212615 -0.164565
0.0507918 0.213111 -0.164581
0.0503069 0.214124 -0.164094
0.0503151 0.215124 -0.164113
0.0503124 0.215614 -0.164622
0.0508164 0.21611 -0.164638
0.0507782 0.213092 -0.165581
0.0502742 0.212596 -0.165565
0.0503097 0.216105 -0.165131
0.050307 0.216595 -0.165641
0.0508111 0.217091 -0.165657
0.0502606 0.212577 -0.166564
0.0503043 0.217086 -0.16615
0.0503016 0.217576 -0.16666
0.0502497 0.212068 -0.167055
0.0502388 0.211559 -0.167545
0.0507428 0.212054 -0.167561
0.0502881 0.217557 -0.167659
0.0507292 0.212035 -0.168561
0.0502252 0.21154 -0.168545
0.0507785 0.218034 -0.168675
0.0502745 0.217538 -0.168659
0.0507156 0.212016 -0.169561
0.0502116 0.211521 -0.169545
0.0502609 0.217519 -0.169659
0.0507021 0.211997 -0.170561
0.050198 0.211502 -0.170544
0.0502582 0.21801 -0.170168
0.0502555 0.2185 -0.170678
0.0501871 0.210992 -0.171035
0.0501762 0.210483 -0.171525
0.0506803 0.210979 -0.171541
0.0506885 0.211979 -0.17156
0.0502419 0.218481 -0.171677
0.0501735 0.210974 -0.172034
0.0501817 0.211973 -0.172053
0.0501791 0.212464 -0.172563
0.0506831 0.212959 -0.172579
0.0507324 0.218958 -0.172693
0.0502284 0.218462 -0.172677
0.0501764 0.212954 -0.173072
0.0501846 0.213954 -0.173091
0.0501819 0.214444 -0.173601
0.0502066 0.217444 -0.173658
0.0502175 0.217953 -0.173167
0.0506724 0.214921 -0.174617
0.0501683 0.214426 -0.1746
0.0506806 0.215921 -0.174636
0.0506888 0.216921 -0.174655
0.050193 0.217425 -0.174657
0.0501656 0.214916 -0.17511
0.0501739 0.215916 -0.175129
0.0501821 0.216916 -0.175148
0.0492988 0.213133 -0.164061
0.0492879 0.212624 -0.164552
0.0492961 0.213623 -0.164571
0.0498001 0.214119 -0.164587
0.0498083 0.215119 -0.164606
0.0492743 0.212605 -0.165551
0.0492934 0.214114 -0.16508
0.0497948 0.2151 -0.165606
0.0492907 0.214604 -0.165589
0.0493098 0.216113 -0.165118
0.0492989 0.215604 -0.165608
0.0493071 0.216604 -0.165627
0.0492607 0.212586 -0.166551
0.049288 0.215095 -0.166099
0.0497976 0.21708 -0.166643
0.0492936 0.216585 -0.166627
0.0492498 0.212076 -0.167041
0.0492389 0.211567 -0.167532
0.049784 0.217062 -0.167643
0.04928 0.216566 -0.167627
0.0492253 0.211548 -0.168532
0.0497704 0.217043 -0.168643
0.0492664 0.216547 -0.168627
0.0492144 0.211039 -0.169022
0.0492035 0.210529 -0.169512
0.0497076 0.211025 -0.169528
0.0497569 0.217024 -0.169643
0.0492528 0.216528 -0.169626
0.049694 0.211006 -0.170528
0.0491899 0.21051 -0.170512
0.0492501 0.217019 -0.170136
0.0492474 0.217509 -0.170645
0.0497515 0.218005 -0.170661
0.0491763 0.210492 -0.171512
0.0497379 0.217986 -0.171661
0.0492339 0.21749 -0.171645
0.0496668 0.210968 -0.172528
0.0491628 0.210473 -0.172511
0.049675 0.211968 -0.172547
0.0492312 0.217981 -0.172154
0.0492285 0.218471 -0.172664
0.0491601 0.210963 -0.173021
0.0491683 0.211963 -0.17304
0.0491656 0.212453 -0.173549
0.0496696 0.212949 -0.173565
0.0496779 0.213949 -0.173584
0.0492067 0.217452 -0.173644
0.0492176 0.217962 -0.173154
0.0496561 0.21293 -0.174565
0.049152 0.212434 -0.174549
0.0496643 0.21393 -0.174584
0.0491931 0.217433 -0.174644
0.0491493 0.212925 -0.175058
0.0491575 0.213925 -0.175077
0.0491658 0.214924 -0.175096
0.049174 0.215924 -0.175115
0.0491822 0.216924 -0.175134
0.0482989 0.213141 -0.164048
0.048288 0.212632 -0.164538
0.0482962 0.213632 -0.164557
0.0482771 0.212123 -0.165029
0.0482662 0.211613 -0.165519
0.0487702 0.212109 -0.165535
0.0487867 0.214109 -0.165573
0.0482826 0.213613 -0.165557
0.0488031 0.216108 -0.165611
0.0487566 0.21209 -0.166535
0.0482526 0.211594 -0.166519
0.0487731 0.21409 -0.166573
0.048269 0.213594 -0.166557
0.0487813 0.215089 -0.166592
0.0487895 0.216089 -0.166611
0.048239 0.211575 -0.167518
0.0482664 0.214084 -0.167066
0.0482746 0.215084 -0.167085
0.0487759 0.21607 -0.167611
0.0482719 0.215575 -0.167594
0.0482254 0.211557 -0.168518
0.0487623 0.216051 -0.16861
0.0482583 0.215556 -0.168594
0.0482145 0.211047 -0.169008
0.0482036 0.210538 -0.169499
0.0487488 0.216032 -0.16961
0.0482447 0.215537 -0.169594
0.04819 0.210519 -0.170499
0.048242 0.216027 -0.170103
0.0482393 0.216518 -0.170613
0.0487434 0.217013 -0.170629
0.0481791 0.21001 -0.170989
0.0481682 0.2095 -0.171479
0.0486723 0.209996 -0.171495
0.0487298 0.216994 -0.171629
0.0482258 0.216499 -0.171612
0.0481656 0.209991 -0.171989
0.0481629 0.210481 -0.172498
0.0482231 0.216989 -0.172122
0.0482204 0.21748 -0.172631
0.0487244 0.217975 -0.172647
0.0481602 0.210972 -0.173007
0.0481575 0.211462 -0.173517
0.0486616 0.211958 -0.173533
0.0482068 0.217461 -0.173631
0.0481548 0.211952 -0.174026
0.0481521 0.212443 -0.174535
0.048185 0.216442 -0.174612
0.0481959 0.216951 -0.174121
0.0486891 0.216938 -0.174628
0.0481495 0.212933 -0.175045
0.0481577 0.213933 -0.175064
0.0481659 0.214933 -0.175083
0.0481741 0.215933 -0.175102
0.0477922 0.213136 -0.164541
0.0472772 0.212131 -0.165015
0.0472663 0.211622 -0.165505
0.0472854 0.213131 -0.165034
0.0472827 0.213621 -0.165544
0.0472554 0.211112 -0.165996
0.0472445 0.210603 -0.166486
0.0477486 0.211099 -0.166502
0.0472692 0.213602 -0.166543
0.047735 0.21108 -0.167502
0.0472309 0.210584 -0.167486
0.0477596 0.214079 -0.167559
0.0472556 0.213584 -0.167543
0.0477678 0.215079 -0.167578
0.04722 0.210075 -0.167976
0.0472091 0.209565 -0.168467
0.0477132 0.210061 -0.168483
0.0477214 0.211061 -0.168502
0.0472529 0.214074 -0.168052
0.0477543 0.21506 -0.168578
0.0472502 0.214564 -0.168562
0.0476996 0.210042 -0.169483
0.0471955 0.209547 -0.169466
0.0477407 0.215041 -0.169578
0.0472366 0.214545 -0.169561
0.047686 0.210023 -0.170482
0.047182 0.209528 -0.170466
0.0472339 0.215036 -0.170071
0.0472313 0.215526 -0.17058
0.0477353 0.216022 -0.170596
0.0471684 0.209509 -0.171466
0.0472286 0.216017 -0.17109
0.0472259 0.216507 -0.171599
0.0476588 0.209985 -0.172482
0.0471548 0.20949 -0.172466
0.0477163 0.216984 -0.172615
0.0472123 0.216488 -0.172599
0.0471521 0.20998 -0.172975
0.0471494 0.210471 -0.173484
0.0476535 0.210966 -0.1735
0.0477028 0.216965 -0.173615
0.0471987 0.216469 -0.173598
0.0476399 0.210947 -0.1745
0.0471358 0.210452 -0.174484
0.0476481 0.211947 -0.174519
0.0471769 0.215451 -0.174579
0.0471878 0.21596 -0.174089
0.047681 0.215946 -0.174595
0.0471332 0.210942 -0.174993
0.0471305 0.211433 -0.175503
0.0476345 0.211928 -0.175519
0.0476427 0.212928 -0.175538
0.0476509 0.213928 -0.175557
0.0471551 0.214432 -0.17556
0.047166 0.214941 -0.175069
0.0471278 0.211923 -0.176012
0.047136 0.212923 -0.176031
0.0471442 0.213923 -0.17605
0.0467705 0.212126 -0.165508
0.0467787 0.213126 -0.165527
0.0462473 0.210121 -0.165963
0.0462364 0.209612 -0.166454
0.0467405 0.210107 -0.16647
0.0462555 0.211121 -0.165982
0.0462638 0.212121 -0.166001
0.046272 0.21312 -0.16602
0.0462693 0.213611 -0.16653
0.0467269 0.210089 -0.16747
0.0462228 0.209593 -0.167453
0.0462557 0.213592 -0.16753
0.0462093 0.209574 -0.168453
0.0467462 0.214069 -0.168545
0.0462421 0.213573 -0.168529
0.0461983 0.209065 -0.168944
0.0461874 0.208555 -0.169434
0.0466915 0.209051 -0.16945
0.0462394 0.214064 -0.169039
0.0462367 0.214554 -0.169548
0.0466779 0.209032 -0.17045
0.0461739 0.208536 -0.170434
0.0467272 0.215031 -0.170564
0.0462232 0.214535 -0.170548
0.0466643 0.209013 -0.17145
0.0461603 0.208517 -0.171433
0.0462205 0.215025 -0.171057
0.0462178 0.215516 -0.171567
0.0467218 0.216012 -0.171583
0.0466507 0.208994 -0.172449
0.0461467 0.208499 -0.172433
0.0462151 0.216006 -0.172076
0.0462124 0.216497 -0.172585
0.046144 0.208989 -0.172942
0.0461413 0.209479 -0.173452
0.0466454 0.209975 -0.173468
0.0461906 0.215478 -0.173566
0.0462015 0.215987 -0.173076
0.0466947 0.215974 -0.173582
0.0466318 0.209956 -0.174468
0.0461277 0.20946 -0.174452
0.046177 0.215459 -0.174566
0.0461251 0.209951 -0.174961
0.0461224 0.210441 -0.17547
0.0466264 0.210937 -0.175487
0.0461552 0.214441 -0.175546
0.0461661 0.21495 -0.175056
0.0461197 0.210932 -0.17598
0.0461279 0.211932 -0.175999
0.0461361 0.212931 -0.176018
0.0461443 0.213931 -0.176037
0.0452474 0.21013 -0.16595
0.0452365 0.20962 -0.16644
0.0452557 0.211129 -0.165969
0.045253 0.21162 -0.166478
0.045757 0.212115 -0.166495
0.0457652 0.213115 -0.166514
0.0452256 0.209111 -0.166931
0.0452147 0.208602 -0.167421
0.0457188 0.209097 -0.167437
0.0452503 0.21211 -0.166988
0.0457517 0.213096 -0.167513
0.0452476 0.212601 -0.167497
0.0457052 0.209078 -0.168437
0.0452012 0.208583 -0.168421
0.0457381 0.213077 -0.168513
0.045234 0.212582 -0.168497
0.0451903 0.208073 -0.168911
0.0451794 0.207564 -0.169401
0.0456834 0.20806 -0.169418
0.0452313 0.213072 -0.169006
0.0452287 0.213563 -0.169516
0.0457327 0.214058 -0.169532
0.0456698 0.208041 -0.170417
0.0451658 0.207545 -0.170401
0.045226 0.214053 -0.170025
0.0452233 0.214544 -0.170534
0.0456562 0.208022 -0.171417
0.0451522 0.207526 -0.171401
0.0457138 0.21502 -0.17155
0.0452097 0.214525 -0.171534
0.0456427 0.208003 -0.172417
0.0451386 0.207507 -0.172401
0.0457002 0.215001 -0.17255
0.0451961 0.214506 -0.172534
0.0457084 0.216001 -0.172569
0.0451359 0.207998 -0.17291
0.0451332 0.208488 -0.173419
0.0456373 0.208984 -0.173436
0.0451934 0.214996 -0.173043
0.0451908 0.215487 -0.173553
0.0456237 0.208965 -0.174435
0.0451197 0.208469 -0.174419
0.045169 0.214468 -0.174533
0.0451799 0.214977 -0.174043
0.045673 0.214964 -0.174549
0.045117 0.20896 -0.174928
0.0451143 0.20945 -0.175438
0.0456183 0.209946 -0.175454
0.0451554 0.214449 -0.175533
0.0451116 0.20994 -0.175947
0.0451089 0.210431 -0.176457
0.045613 0.210927 -0.176473
0.0456212 0.211926 -0.176492
0.0456294 0.212926 -0.176511
0.0451336 0.21343 -0.176514
0.0451445 0.21394 -0.176023
0.0451062 0.210921 -0.176966
0.0451144 0.211921 -0.176985
0.0451227 0.212921 -0.177004
0.0442394 0.209138 -0.165917
0.0442285 0.208629 -0.166408
0.0447325 0.209125 -0.166424
0.0442476 0.210138 -0.165937
0.0442449 0.210628 -0.166446
0.0447489 0.211124 -0.166462
0.0442176 0.20812 -0.166898
0.0442067 0.20761 -0.167389
0.0447107 0.208106 -0.167405
0.0442422 0.211119 -0.166955
0.0442395 0.211609 -0.167465
0.0447436 0.212105 -0.167481
0.0446971 0.208087 -0.168405
0.0441931 0.207591 -0.168388
0.04473 0.212086 -0.168481
0.0442259 0.21159 -0.168464
0.0441795 0.207572 -0.169388
0.0442233 0.212081 -0.168974
0.0442206 0.212571 -0.169483
0.0447246 0.213067 -0.169499
0.0441659 0.207554 -0.170388
0.044711 0.213048 -0.170499
0.044207 0.212552 -0.170483
0.0447192 0.214048 -0.170518
0.0441523 0.207535 -0.171387
0.0442043 0.213043 -0.170992
0.0442125 0.214043 -0.171011
0.0442098 0.214533 -0.171521
0.0441387 0.207516 -0.172387
0.0441962 0.214514 -0.17252
0.0446292 0.207992 -0.173403
0.0441251 0.207497 -0.173387
0.0446867 0.214991 -0.173536
0.0441827 0.214495 -0.17352
0.0446156 0.207974 -0.174403
0.0441116 0.207478 -0.174387
0.0441691 0.214476 -0.17452
0.044602 0.207955 -0.175403
0.044098 0.207459 -0.175386
0.0446102 0.208954 -0.175422
0.0441555 0.214457 -0.17552
0.0440953 0.207949 -0.175896
0.0440926 0.20844 -0.176405
0.0445967 0.208935 -0.176421
0.0446049 0.209935 -0.17644
0.0441337 0.213439 -0.1765
0.0441446 0.213948 -0.17601
0.0440899 0.20893 -0.176915
0.0440981 0.20993 -0.176934
0.0440955 0.21042 -0.177443
0.0445995 0.210916 -0.177459
0.0446077 0.211916 -0.177478
0.0441119 0.21242 -0.177481
0.0441228 0.212929 -0.176991
0.0440928 0.210911 -0.177952
0.044101 0.211911 -0.177971
0.0432395 0.209147 -0.165904
0.0432286 0.208637 -0.166394
0.0432368 0.209637 -0.166413
0.0437408 0.210133 -0.16643
0.0432177 0.208128 -0.166885
0.0432068 0.207619 -0.167375
0.0432341 0.210128 -0.166923
0.0432314 0.210618 -0.167432
0.0437355 0.211114 -0.167448
0.0431959 0.207109 -0.167865
0.043185 0.2066 -0.168356
0.043689 0.207096 -0.168372
0.0432287 0.211108 -0.167942
0.0432261 0.211599 -0.168451
0.0436754 0.207077 -0.169372
0.0431714 0.206581 -0.169356
0.0432234 0.212089 -0.16896
0.0432207 0.21258 -0.16947
0.0436619 0.207058 -0.170372
0.0431578 0.206562 -0.170355
0.0432071 0.212561 -0.170469
0.0436483 0.207039 -0.171371
0.0431442 0.206543 -0.171355
0.0432044 0.213051 -0.170979
0.0432017 0.213542 -0.171488
0.0437058 0.214037 -0.171504
0.0436347 0.20702 -0.172371
0.0431306 0.206524 -0.172355
0.0431991 0.214032 -0.171998
0.0431964 0.214523 -0.172507
0.0436211 0.207001 -0.173371
0.0431171 0.206505 -0.173354
0.0431828 0.214504 -0.173507
0.0436075 0.206982 -0.17437
0.0431035 0.206487 -0.174354
0.0431692 0.214485 -0.174506
0.0435939 0.206963 -0.17537
0.0430899 0.206468 -0.175354
0.0431556 0.214466 -0.175506
0.0430872 0.206958 -0.175863
0.0430845 0.207449 -0.176373
0.0435886 0.207944 -0.176389
0.0431338 0.213447 -0.176487
0.0431447 0.213957 -0.175996
0.0430818 0.207939 -0.176882
0.0430792 0.208429 -0.177391
0.0435832 0.208925 -0.177408
0.0435914 0.209925 -0.177427
0.043112 0.212429 -0.177468
0.0431229 0.212938 -0.176977
0.0430765 0.20892 -0.177901
0.0430847 0.20992 -0.17792
0.0430929 0.210919 -0.177939
0.0431011 0.211919 -0.177958
0.0427328 0.209142 -0.166397
0.0422096 0.207137 -0.166852
0.0421987 0.206627 -0.167343
0.0427027 0.207123 -0.167359
0.0422178 0.208137 -0.166871
0.042226 0.209136 -0.16689
0.0422233 0.209627 -0.1674
0.0427274 0.210122 -0.167416
0.0421851 0.206608 -0.168342
0.0422207 0.210117 -0.167909
0.042218 0.210608 -0.168418
0.042722 0.211103 -0.168435
0.0421715 0.20659 -0.169342
0.0422153 0.211098 -0.168928
0.0422126 0.211588 -0.169437
0.0427166 0.212084 -0.169453
0.0421606 0.20608 -0.169832
0.0421497 0.205571 -0.170323
0.0426538 0.206067 -0.170339
0.0422099 0.212079 -0.169947
0.0422072 0.212569 -0.170456
0.0426402 0.206048 -0.171339
0.0421361 0.205552 -0.171323
0.0422046 0.21306 -0.170965
0.0422019 0.21355 -0.171475
0.0426266 0.206029 -0.172339
0.0421225 0.205533 -0.172322
0.0426923 0.214027 -0.172491
0.0421883 0.213531 -0.172474
0.042613 0.20601 -0.173338
0.042109 0.205514 -0.173322
0.0421856 0.214022 -0.172984
0.0421829 0.214512 -0.173493
0.0425994 0.205991 -0.174338
0.0420954 0.205495 -0.174322
0.0421693 0.214493 -0.174493
0.0420927 0.205986 -0.174831
0.04209 0.206476 -0.175341
0.0421557 0.214474 -0.175493
0.0425805 0.206953 -0.176356
0.0420764 0.206457 -0.17634
0.0421339 0.213456 -0.176473
0.0421448 0.213965 -0.175983
0.0425669 0.206934 -0.177356
0.0420628 0.206438 -0.17734
0.0425751 0.207934 -0.177375
0.0421121 0.212437 -0.177454
0.042123 0.212946 -0.176964
0.0420602 0.206929 -0.177849
0.0420575 0.207419 -0.178359
0.0425615 0.207915 -0.178375
0.0425697 0.208915 -0.178394
0.042578 0.209914 -0.178413
0.0420821 0.210419 -0.178416
0.042093 0.210928 -0.177925
0.0421012 0.211928 -0.177944
0.0420548 0.20791 -0.178868
0.042063 0.208909 -0.178887
0.0420712 0.209909 -0.178906
0.0412097 0.207145 -0.166839
0.0411988 0.206636 -0.167329
0.0412179 0.208145 -0.166858
0.0412152 0.208635 -0.167367
0.0417193 0.209131 -0.167384
0.0411879 0.206127 -0.16782
0.041177 0.205617 -0.16831
0.0416811 0.206113 -0.168326
0.0412126 0.209126 -0.167877
0.0412208 0.210126 -0.167896
0.0412181 0.210616 -0.168405
0.0416675 0.206094 -0.169326
0.0411634 0.205598 -0.16931
0.0412154 0.211107 -0.168914
0.0412127 0.211597 -0.169424
0.0411498 0.205579 -0.170309
0.0417032 0.212074 -0.17044
0.0411991 0.211578 -0.170424
0.0411363 0.20556 -0.171309
0.0411965 0.212068 -0.170933
0.0411938 0.212559 -0.171442
0.0416978 0.213055 -0.171459
0.0411254 0.205051 -0.171799
0.0411145 0.204542 -0.17229
0.0416185 0.205037 -0.172306
0.0411911 0.213049 -0.171952
0.0411884 0.21354 -0.172461
0.0416049 0.205018 -0.173306
0.0411009 0.204523 -0.17329
0.0416789 0.214017 -0.173477
0.0411748 0.213521 -0.173461
0.0415913 0.205 -0.174306
0.0410873 0.204504 -0.174289
0.0411721 0.214011 -0.17397
0.0411695 0.214502 -0.17448
0.0410846 0.204994 -0.174799
0.0410819 0.205485 -0.175308
0.041586 0.20598 -0.175324
0.0411559 0.214483 -0.175479
0.0415724 0.205962 -0.176324
0.0410683 0.205466 -0.176308
0.0411341 0.213464 -0.17646
0.041145 0.213974 -0.17597
0.0415588 0.205943 -0.177324
0.0410548 0.205447 -0.177308
0.0416163 0.212941 -0.177457
0.0411205 0.213445 -0.17746
0.0410521 0.205937 -0.177817
0.0410494 0.206428 -0.178326
0.0415534 0.206924 -0.178342
0.0415863 0.210923 -0.178419
0.0415945 0.211922 -0.178438
0.0410987 0.212427 -0.17844
0.0411096 0.212936 -0.17795
0.0410467 0.206918 -0.178836
0.041044 0.207409 -0.179345
0.0415481 0.207904 -0.179361
0.0410522 0.208409 -0.179364
0.0410631 0.208918 -0.178874
0.0410714 0.209918 -0.178893
0.0410796 0.210917 -0.178912
0.0410878 0.211917 -0.178931
0.0410413 0.207899 -0.179854
0.0402098 0.207154 -0.166825
0.0401989 0.206644 -0.167316
0.0402072 0.207644 -0.167335
0.0407112 0.20814 -0.167351
0.040188 0.206135 -0.167806
0.0401771 0.205626 -0.168297
0.0402045 0.208135 -0.167844
0.0402127 0.209134 -0.167863
0.04021 0.209625 -0.168373
0.0407141 0.21012 -0.168389
0.0401662 0.205116 -0.168787
0.0401553 0.204607 -0.169277
0.0406594 0.205103 -0.169293
0.0402073 0.210115 -0.168882
0.0402046 0.210606 -0.169391
0.0407087 0.211101 -0.169408
0.0406458 0.205084 -0.170293
0.0401418 0.204588 -0.170277
0.040202 0.211096 -0.169901
0.0401993 0.211587 -0.17041
0.0406322 0.205065 -0.171293
0.0401282 0.204569 -0.171277
0.0401966 0.212077 -0.17092
0.0401939 0.212567 -0.171429
0.0401146 0.20455 -0.172276
0.0401912 0.213058 -0.171938
0.0401885 0.213548 -0.172448
0.040101 0.204531 -0.173276
0.040175 0.213529 -0.173447
0.0400874 0.204512 -0.174276
0.0401723 0.21402 -0.173957
0.0401696 0.21451 -0.174466
0.0405779 0.204989 -0.175292
0.0400738 0.204493 -0.175276
0.04066 0.214987 -0.175482
0.0401669 0.215001 -0.174975
0.0401642 0.215491 -0.175485
0.0405643 0.20497 -0.176292
0.0400602 0.204475 -0.176275
0.0401342 0.213473 -0.176447
0.0401451 0.213982 -0.175956
0.0401533 0.214982 -0.175975
0.0405507 0.204951 -0.177291
0.0400467 0.204456 -0.177275
0.0401206 0.213454 -0.177446
0.040044 0.204946 -0.177784
0.0400413 0.205437 -0.178294
0.0405453 0.205932 -0.17831
0.0400988 0.212435 -0.178427
0.0401097 0.212944 -0.177937
0.0405318 0.205913 -0.17931
0.0400277 0.205418 -0.179294
0.04054 0.206913 -0.179329
0.0405564 0.208913 -0.179367
0.0405646 0.209912 -0.179386
0.0400688 0.210417 -0.179389
0.0400797 0.210926 -0.178898
0.0400879 0.211926 -0.178917
0.040025 0.205908 -0.179803
0.0400332 0.206908 -0.179822
0.0400415 0.207908 -0.179841
0.0400497 0.208907 -0.17986
0.0400579 0.209907 -0.179879
0.0397031 0.207148 -0.167319
0.0391799 0.205144 -0.167774
0.039169 0.204634 -0.168264
0.0396731 0.20513 -0.16828
0.0391882 0.206143 -0.167793
0.0391964 0.207143 -0.167812
0.0392046 0.208143 -0.167831
0.0392128 0.209143 -0.16785
0.0392101 0.209633 -0.168359
0.0391555 0.204615 -0.169264
0.0392074 0.210124 -0.168869
0.0392048 0.210614 -0.169378
0.0391446 0.204106 -0.169754
0.0391337 0.203597 -0.170245
0.0396377 0.204092 -0.170261
0.0392021 0.211105 -0.169887
0.0391994 0.211595 -0.170397
0.0396241 0.204073 -0.17126
0.0391201 0.203578 -0.171244
0.0391967 0.212085 -0.170906
0.039194 0.212576 -0.171415
0.0396105 0.204055 -0.17226
0.0391065 0.203559 -0.172244
0.0391913 0.213066 -0.171925
0.0391887 0.213557 -0.172434
0.039597 0.204036 -0.17326
0.0390929 0.20354 -0.173244
0.0391751 0.213538 -0.173434
0.0395834 0.204017 -0.17426
0.0390793 0.203521 -0.174243
0.0391724 0.214028 -0.173943
0.0391697 0.214519 -0.174453
0.0395698 0.203998 -0.175259
0.0390657 0.203502 -0.175243
0.039167 0.215009 -0.174962
0.0391643 0.2155 -0.175471
0.0395562 0.203979 -0.176259
0.0390522 0.203483 -0.176243
0.0391343 0.213481 -0.176433
0.0391452 0.21399 -0.175943
0.0391534 0.21499 -0.175962
0.0395426 0.20396 -0.177259
0.0390386 0.203464 -0.177243
0.0391207 0.213462 -0.177433
0.0390359 0.203955 -0.177752
0.0390332 0.204445 -0.178261
0.0395372 0.204941 -0.178278
0.0390989 0.212444 -0.178414
0.0391098 0.212953 -0.177923
0.0395237 0.204922 -0.179277
0.0390196 0.204426 -0.179261
0.0390689 0.210425 -0.179375
0.0390798 0.210934 -0.178885
0.039088 0.211934 -0.178904
0.0390169 0.204917 -0.17977
0.0390143 0.205407 -0.18028
0.0395183 0.205903 -0.180296
0.0395265 0.206903 -0.180315
0.0395347 0.207902 -0.180334
0.0390389 0.208407 -0.180337
0.0390498 0.208916 -0.179847
0.039058 0.209916 -0.179866
0.0390116 0.205898 -0.180789
0.0390198 0.206897 -0.180808
0.039028 0.207897 -0.180827
0.0381801 0.205152 -0.16776
0.0381692 0.204643 -0.168251
0.0381883 0.206152 -0.167779
0.0381965 0.207152 -0.167798
0.0382047 0.208152 -0.167817
0.038202 0.208642 -0.168327
0.0387061 0.209138 -0.168343
0.0381583 0.204133 -0.168741
0.0381474 0.203624 -0.169231
0.0386514 0.20412 -0.169248
0.0381994 0.209132 -0.168836
0.0381967 0.209623 -0.169346
0.0387007 0.210118 -0.169362
0.0379557 0.181119 -0.169303
0.0379448 0.18061 -0.169794
0.0384488 0.181106 -0.16981
0.037953 0.18161 -0.169813
0.0381338 0.203605 -0.170231
0.038194 0.210113 -0.169855
0.0382022 0.211113 -0.169874
0.0381995 0.211603 -0.170383
0.0379339 0.180101 -0.170284
0.037923 0.179591 -0.170774
0.038427 0.180087 -0.170791
0.0384353 0.181087 -0.17081
0.0379503 0.1821 -0.170322
0.0384435 0.182087 -0.170829
0.0379477 0.182591 -0.170831
0.0381229 0.203096 -0.170721
0.038112 0.202587 -0.171212
0.038616 0.203082 -0.171228
0.0381968 0.212094 -0.170893
0.0381942 0.212584 -0.171402
0.0379203 0.180082 -0.171284
0.0379285 0.181082 -0.171303
0.0379368 0.182081 -0.171322
0.0386024 0.203063 -0.172228
0.0380984 0.202568 -0.172212
0.0381915 0.213075 -0.171911
0.0381888 0.213565 -0.172421
0.0385889 0.203044 -0.173227
0.0380848 0.202549 -0.173211
0.0381752 0.213546 -0.173421
0.0385753 0.203025 -0.174227
0.0380712 0.20253 -0.174211
0.0386657 0.214023 -0.174436
0.0381616 0.213527 -0.17442
0.0385617 0.203007 -0.175227
0.0380576 0.202511 -0.175211