<VTKFile type="UnstructuredGrid" version="0.1" byte_order="BigEndian">
  <UnstructuredGrid>
    <Piece NumberOfPoints="18954" NumberOfCells="37908">
      <PointData>
        <DataArray type="Float64" Name="position" NumberOfComponents="3" format="ascii">
0.0439815 0.225293 -0.0802786
0.04397 0.224826 -0.0808094
0.0444694 0.225327 -0.0807894
0.0444684 0.226325 -0.0807253
0.0439806 0.226291 -0.0802146
0.0444675 0.227323 -0.0806613
0.0439796 0.227289 -0.0801505
0.0439671 0.22782 -0.0806173
0.0444453 0.225391 -0.081787
0.043946 0.22489 -0.0818071
0.0444444 0.226389 -0.081723
0.0444434 0.227386 -0.081659
0.0439546 0.228351 -0.0810842
0.0444425 0.228384 -0.0815949
0.0439421 0.228882 -0.081551
0.0444213 0.225455 -0.0827847
0.0439219 0.224954 -0.0828047
0.0444203 0.226453 -0.0827207
0.0444194 0.22745 -0.0826566
0.0444184 0.228448 -0.0825926
0.0439181 0.228946 -0.0825486
0.0443973 0.225519 -0.0837824
0.0438979 0.225018 -0.0838024
0.0443963 0.226517 -0.0837183
0.0443954 0.227514 -0.0836543
0.0443944 0.228512 -0.0835903
0.0438941 0.22901 -0.0835463
0.0438854 0.225549 -0.0842692
0.0438729 0.22608 -0.084736
0.0443723 0.226581 -0.084716
0.0443713 0.227578 -0.084652
0.0438825 0.228543 -0.0840771
0.043871 0.228076 -0.084608
0.0438604 0.226611 -0.0852029
0.0438594 0.227609 -0.0851388
0.0430309 0.224165 -0.0783234
0.0430193 0.223698 -0.0788542
0.0435187 0.224198 -0.0788342
0.0435177 0.225196 -0.0787701
0.0430299 0.225163 -0.0782593
0.0435168 0.226194 -0.0787061
0.0430289 0.226161 -0.0781953
0.0435158 0.227192 -0.0786421
0.043028 0.227159 -0.0781313
0.0430155 0.22769 -0.0785981
0.0434947 0.224262 -0.0798318
0.0429953 0.223762 -0.0798519
0.0434937 0.22526 -0.0797678
0.0434927 0.226258 -0.0797038
0.0434918 0.227256 -0.0796397
0.043003 0.228221 -0.0790649
0.0434908 0.228254 -0.0795757
0.0429905 0.228752 -0.0795317
0.0434706 0.224326 -0.0808295
0.0429712 0.223826 -0.0808495
0.0434668 0.228318 -0.0805734
0.0429665 0.228816 -0.0805294
0.0434466 0.22439 -0.0818271
0.0429472 0.22389 -0.0818472
0.0434418 0.22938 -0.081507
0.042954 0.229347 -0.0809962
0.0429415 0.229878 -0.081463
0.0434225 0.224454 -0.0828248
0.0429232 0.223954 -0.0828449
0.0434178 0.229444 -0.0825047
0.0429174 0.229942 -0.0824607
0.0433985 0.224518 -0.0838225
0.0428991 0.224018 -0.0838425
0.0433937 0.229508 -0.0835023
0.0428934 0.230006 -0.0834583
0.0433745 0.224582 -0.0848201
0.0428751 0.224082 -0.0848402
0.0433735 0.22558 -0.0847561
0.0433707 0.228574 -0.084564
0.0428703 0.229072 -0.08452
0.0428819 0.229539 -0.0839892
0.0428626 0.224613 -0.085307
0.0428616 0.225611 -0.085243
0.0428607 0.226609 -0.0851789
0.0428597 0.227607 -0.0851149
0.0428588 0.228605 -0.0850509
0.0420783 0.225032 -0.0762401
0.0420667 0.224565 -0.0767709
0.0425661 0.225066 -0.0767509
0.0425651 0.226064 -0.0766868
0.0420773 0.22603 -0.0761761
0.0425642 0.227062 -0.0766228
0.0420763 0.227028 -0.076112
0.0420639 0.227559 -0.0765788
0.0420552 0.224098 -0.0773018
0.0420436 0.223631 -0.0778326
0.042543 0.224132 -0.0778126
0.0425421 0.22513 -0.0777485
0.0425411 0.226128 -0.0776845
0.0425401 0.227126 -0.0776205
0.0420514 0.22809 -0.0770457
0.0425392 0.228124 -0.0775565
0.0420389 0.228621 -0.0775125
0.0420321 0.223165 -0.0783635
0.0420206 0.222698 -0.0788943
0.0425199 0.223198 -0.0788743
0.0425152 0.228187 -0.0785541
0.0420264 0.229152 -0.0779793
0.0425142 0.229185 -0.0784901
0.0420139 0.229683 -0.0784461
0.0424959 0.223262 -0.0798719
0.0419965 0.222762 -0.079892
0.0424902 0.229249 -0.0794877
0.0419898 0.229747 -0.0794438
0.0424719 0.223326 -0.0808696
0.0419725 0.222826 -0.0808896
0.0424661 0.229313 -0.0804854
0.0419658 0.229811 -0.0804414
0.0424478 0.22339 -0.0818672
0.0419484 0.222889 -0.0818873
0.0419418 0.229875 -0.0814391
0.0424238 0.223454 -0.0828649
0.0419244 0.222953 -0.082885
0.0419177 0.229939 -0.0824368
0.0423998 0.223518 -0.0838626
0.0419004 0.223017 -0.0838826
0.0418946 0.229005 -0.0834984
0.0419062 0.229472 -0.0829676
0.042394 0.229505 -0.0834784
0.0423757 0.223582 -0.0848602
0.0418763 0.223081 -0.0848803
0.0418706 0.229069 -0.0844961
0.0418638 0.223612 -0.0853471
0.0418629 0.22461 -0.0852831
0.0418619 0.225608 -0.085219
0.041861 0.226606 -0.085155
0.04186 0.227604 -0.085091
0.0418591 0.228602 -0.0850269
0.0410795 0.224032 -0.0762802
0.041068 0.223565 -0.076811
0.0415673 0.224065 -0.076791
0.0410785 0.22503 -0.0762162
0.0410776 0.226028 -0.0761521
0.0410651 0.226559 -0.0766189
0.0415645 0.227059 -0.0765989
0.0410564 0.223098 -0.0773419
0.0410449 0.222631 -0.0778727
0.0415443 0.223131 -0.0778527
0.0410526 0.22709 -0.0770858
0.0410401 0.227621 -0.0775526
0.0415395 0.228121 -0.0775325
0.0410208 0.222695 -0.0788704
0.0410276 0.228152 -0.0780194
0.0410151 0.228683 -0.0784862
0.0415145 0.229183 -0.0784662
0.0410093 0.222228 -0.0794012
0.0409978 0.221761 -0.0799321
0.0414971 0.222261 -0.079912
0.0410026 0.229214 -0.078953
0.0409901 0.229745 -0.0794198
0.0414731 0.222325 -0.0809097
0.0409737 0.221825 -0.0809297
0.0409661 0.229809 -0.0804175
0.0414491 0.222389 -0.0819073
0.0409497 0.221889 -0.0819274
0.0409421 0.229873 -0.0814152
0.0409372 0.22242 -0.0823942
0.0409247 0.222951 -0.082861
0.040919 0.228939 -0.0824769
0.0409305 0.229406 -0.081946
0.0414183 0.229439 -0.0824568
0.0409007 0.223015 -0.0838587
0.0408949 0.229003 -0.0834745
0.0408766 0.223079 -0.0848564
0.0408719 0.228069 -0.0845362
0.0408834 0.228536 -0.0840054
0.0413712 0.228569 -0.0845162
0.0408641 0.22361 -0.0853232
0.0408632 0.224608 -0.0852591
0.0408622 0.225606 -0.0851951
0.0408613 0.226604 -0.0851311
0.0408603 0.227602 -0.0850671
0.0400807 0.223032 -0.0763203
0.0400692 0.222565 -0.0768511
0.0405686 0.223065 -0.0768311
0.0400798 0.22403 -0.0762563
0.0400788 0.225027 -0.0761922
0.0400779 0.226025 -0.0761282
0.0400654 0.226556 -0.076595
0.0400577 0.222098 -0.077382
0.0400461 0.221631 -0.0779128
0.0405455 0.222131 -0.0778928
0.0400529 0.227087 -0.0770618
0.0400404 0.227618 -0.0775287
0.0405215 0.222195 -0.0788904
0.0400221 0.221695 -0.0789105
0.0405157 0.228183 -0.0785063
0.0400164 0.227682 -0.0785263
0.0400105 0.221228 -0.0794413
0.039999 0.220761 -0.0799722
0.0404984 0.221261 -0.0799521
0.0400039 0.228213 -0.0789931
0.0399914 0.228744 -0.0794599
0.0404907 0.229244 -0.0794399
0.0404743 0.221325 -0.0809498
0.039975 0.220825 -0.0809698
0.0404667 0.229308 -0.0804376
0.0399673 0.228808 -0.0804576
0.0404503 0.221389 -0.0819475
0.0399509 0.220889 -0.0819675
0.0404427 0.229372 -0.0814352
0.0399433 0.228872 -0.0814553
0.0399384 0.22142 -0.0824343
0.0399259 0.221951 -0.0829011
0.0404253 0.222451 -0.0828811
0.0399202 0.227938 -0.082517
0.0399318 0.228405 -0.0819861
0.0404196 0.228438 -0.0824969
0.0404013 0.222515 -0.0838787
0.0399019 0.222015 -0.0838988
0.0398971 0.227004 -0.0835786
0.0399087 0.227471 -0.0830478
0.0403965 0.227505 -0.0835586
0.0403956 0.228502 -0.0834946
0.0398894 0.222546 -0.0843656
0.0398769 0.223076 -0.0848324
0.0403725 0.227568 -0.0845563
0.0398731 0.227068 -0.0845763
0.0398644 0.223607 -0.0852992
0.0398635 0.224605 -0.0852352
0.0398625 0.225603 -0.0851712
0.0398616 0.226601 -0.0851072
0.0391041 0.223963 -0.0752347
0.0390926 0.223496 -0.0757655
0.039592 0.223996 -0.0757455
0.039591 0.224994 -0.0756814
0.0391032 0.224961 -0.0751706
0.0390907 0.225492 -0.0756375
0.039082 0.222031 -0.0763604
0.0390705 0.221564 -0.0768912
0.0395698 0.222064 -0.0768712
0.039081 0.223029 -0.0762964
0.0390782 0.226023 -0.0761043
0.0390657 0.226554 -0.0765711
0.0390464 0.221628 -0.0778889
0.0390532 0.227085 -0.0770379
0.0390407 0.227616 -0.0775047
0.0390349 0.221161 -0.0784197
0.0390233 0.220694 -0.0789506
0.0395227 0.221194 -0.0789305
0.0390166 0.22768 -0.0785024
0.0389993 0.220758 -0.0799483
0.039492 0.228244 -0.07948
0.0389926 0.227744 -0.0795
0.0389753 0.220822 -0.0809459
0.039468 0.228308 -0.0804777
0.0389686 0.227808 -0.0804977
0.0389512 0.220886 -0.0819436
0.0394439 0.228372 -0.0814753
0.0389445 0.227872 -0.0814954
0.0394266 0.22145 -0.0829212
0.0389272 0.22095 -0.0829412
0.0389205 0.227936 -0.082493
0.0389147 0.221481 -0.0834081
0.0389022 0.222012 -0.0838749
0.0388974 0.227002 -0.0835547
0.038909 0.227469 -0.0830239
0.0388897 0.222543 -0.0843417
0.0388772 0.223074 -0.0848085
0.0388734 0.227066 -0.0845524
0.0388647 0.223605 -0.0852753
0.0388638 0.224603 -0.0852113
0.0388628 0.225601 -0.0851473
0.0388618 0.226599 -0.0850832
0.0381044 0.223961 -0.0752108
0.0380929 0.223494 -0.0757416
0.0381035 0.224958 -0.0751467
0.038091 0.225489 -0.0756135
0.0380823 0.222029 -0.0763365
0.0380707 0.221562 -0.0768673
0.0380813 0.223027 -0.0762724
0.0380785 0.22602 -0.0760804
0.038066 0.226551 -0.0765472
0.0380592 0.221095 -0.0773982
0.0380477 0.220628 -0.077929
0.038547 0.221128 -0.077909
0.0380535 0.227082 -0.077014
0.038041 0.227613 -0.0774808
0.0380236 0.220692 -0.0789267
0.0380169 0.227677 -0.0784785
0.0380121 0.220225 -0.0794575
0.0380005 0.219758 -0.0799884
0.0384999 0.220258 -0.0799683
0.0379929 0.227741 -0.0794761
0.0384759 0.220322 -0.080966
0.0379765 0.219822 -0.080986
0.0379689 0.227805 -0.0804738
0.0384518 0.220386 -0.0819636
0.0379525 0.219886 -0.0819837
0.0379448 0.227869 -0.0814714
0.03794 0.220417 -0.0824505
0.0379275 0.220948 -0.0829173
0.0379208 0.227933 -0.0824691
0.0384028 0.221512 -0.0838949
0.0379034 0.221012 -0.083915
0.0378977 0.226999 -0.0835308
0.0379093 0.227466 -0.083
0.0378909 0.221543 -0.0843818
0.0378784 0.222074 -0.0848486
0.0383778 0.222574 -0.0848286
0.0378756 0.225067 -0.0846565
0.0378871 0.225534 -0.0841257
0.038375 0.225568 -0.0846365
0.0378862 0.226532 -0.0840616
0.038374 0.226566 -0.0845724
0.037866 0.222605 -0.0853154
0.037865 0.223602 -0.0852514
0.037864 0.2246 -0.0851874
0.0375925 0.223991 -0.0756976
0.0375916 0.224989 -0.0756336
0.0370835 0.221028 -0.0763766
0.037072 0.220561 -0.0769074
0.0375714 0.221061 -0.0768874
0.0370826 0.222026 -0.0763125
0.0370816 0.223024 -0.0762485
0.0370807 0.224022 -0.0761845
0.0370797 0.22502 -0.0761205
0.0370787 0.226018 -0.0760564
0.0370663 0.226549 -0.0765232
0.0370479 0.220625 -0.0779051
0.0375416 0.227113 -0.0775009
0.0370422 0.226613 -0.0775209
0.0370364 0.220158 -0.0784359
0.0370249 0.219691 -0.0789668
0.0375242 0.220191 -0.0789467
0.0370297 0.227144 -0.0779877
0.0370172 0.227675 -0.0784545
0.0370008 0.219755 -0.0799644
0.0369932 0.227739 -0.0794522
0.0369768 0.219819 -0.0809621
0.0369692 0.227803 -0.0804499
0.0369528 0.219883 -0.0819598
0.0369451 0.227867 -0.0814475
0.0374281 0.220447 -0.0829374
0.0369287 0.219947 -0.0829574
0.036922 0.226933 -0.0825092
0.0369336 0.2274 -0.0819784
0.0374214 0.227433 -0.0824892
0.0369162 0.220478 -0.0834242
0.0369037 0.221009 -0.083891
0.036898 0.226997 -0.0835069
0.0373791 0.221573 -0.0848687
0.0368797 0.221073 -0.0848887
0.0368759 0.225065 -0.0846326
0.0368874 0.225532 -0.0841017
0.0368865 0.22653 -0.0840377
0.0368672 0.221604 -0.0853555
0.0368662 0.222602 -0.0852915
0.0368653 0.2236 -0.0852275
0.0368643 0.224598 -0.0851634
0.0360838 0.221026 -0.0763526
0.0360723 0.220559 -0.0768835
0.0360829 0.222024 -0.0762886
0.0360819 0.223022 -0.0762246
0.0360809 0.22402 -0.0761606
0.03608 0.225017 -0.0760965
0.0360675 0.225548 -0.0765633
0.0365669 0.226049 -0.0765433
0.0360607 0.220092 -0.0774143
0.0360492 0.219625 -0.0779452
0.0365486 0.220125 -0.0779251
0.036055 0.226079 -0.0770302
0.0360425 0.22661 -0.077497
0.0360252 0.219689 -0.0789428
0.03603 0.227141 -0.0779638
0.0360175 0.227672 -0.0784306
0.0360136 0.219222 -0.0794737
0.0360021 0.218755 -0.0800045
0.0365015 0.219255 -0.0799845
0.0359935 0.227736 -0.0794283
0.0364774 0.219319 -0.0809821
0.035978 0.218819 -0.0810022
0.0359694 0.2278 -0.0804259
0.0359655 0.21935 -0.081469
0.035953 0.219881 -0.0819358
0.0359464 0.226866 -0.0814876
0.0359579 0.227333 -0.0809568
0.0364457 0.227367 -0.0814676
0.035929 0.219945 -0.0829335
0.0359223 0.22693 -0.0824853
0.0364044 0.220509 -0.0839111
0.035905 0.220009 -0.0839312
0.0358992 0.225996 -0.083547
0.0359108 0.226463 -0.0830161
0.0363986 0.226497 -0.0835269
0.0363803 0.220573 -0.0849088
0.0358809 0.220073 -0.0849288
0.0358762 0.225062 -0.0846087
0.0358877 0.225529 -0.0840778
0.0358684 0.220604 -0.0853956
0.0358675 0.221602 -0.0853316
0.0358665 0.2226 -0.0852676
0.0358656 0.223597 -0.0852035
0.0358646 0.224595 -0.0851395
0.0350851 0.220025 -0.0763928
0.0350735 0.219558 -0.0769236
0.0355729 0.220058 -0.0769035
0.0350841 0.221023 -0.0763287
0.0350831 0.222021 -0.0762647
0.0350822 0.223019 -0.0762007
0.0350812 0.224017 -0.0761366
0.0350803 0.225015 -0.0760726
0.0350678 0.225546 -0.0765394
0.035062 0.219091 -0.0774544
0.0350504 0.218624 -0.0779853
0.0355498 0.219125 -0.0779652
0.0350553 0.226077 -0.0770062
0.0350428 0.226608 -0.0774731
0.0355258 0.219189 -0.0789629
0.0350264 0.218688 -0.0789829
0.0355181 0.227172 -0.0784507
0.0350188 0.226672 -0.0784707
0.0350024 0.218752 -0.0799806
0.0354941 0.227236 -0.0794483
0.0349947 0.226736 -0.0794684
0.0349783 0.218816 -0.0809783
0.0354701 0.2273 -0.080446
0.0349707 0.2268 -0.080466
0.0354537 0.21938 -0.0819559
0.0349543 0.21888 -0.0819759
0.0349467 0.226864 -0.0814637
0.0354296 0.219444 -0.0829535
0.0349303 0.218944 -0.0829736
0.0349226 0.226928 -0.0824614
0.0349178 0.219475 -0.0834404
0.0349053 0.220006 -0.0839072
0.0348995 0.225994 -0.083523
0.0349111 0.226461 -0.0829922
0.0348812 0.22007 -0.0849049
0.0348765 0.22506 -0.0845847
0.034888 0.225527 -0.0840539
0.0348687 0.220601 -0.0853717
0.0348562 0.221132 -0.0858385
0.0353556 0.221632 -0.0858185
0.0353547 0.22263 -0.0857544
0.0348543 0.223128 -0.0857105
0.0348659 0.223595 -0.0851796
0.0348649 0.224593 -0.0851156
0.0348437 0.221663 -0.0863053
0.0348428 0.222661 -0.0862413
0.0340853 0.220023 -0.0763688
0.0340738 0.219556 -0.0768997
0.0340844 0.221021 -0.0763048
0.0340834 0.222019 -0.0762408
0.0340825 0.223017 -0.0761767
0.0340815 0.224015 -0.0761127
0.0340806 0.225013 -0.0760487
0.0340681 0.225543 -0.0765155
0.0340623 0.219089 -0.0774305
0.0340507 0.218622 -0.0779614
0.0340556 0.226074 -0.0769823
0.0340431 0.226605 -0.0774491
0.0340392 0.218155 -0.0784922
0.0340276 0.217688 -0.0790231
0.034527 0.218188 -0.079003
0.034019 0.226669 -0.0784468
0.034503 0.218252 -0.0800007
0.0340036 0.217752 -0.0800207
0.033995 0.226733 -0.0794444
0.0339911 0.218283 -0.0804875
0.0339786 0.218814 -0.0809543
0.033971 0.226797 -0.0804421
0.0339546 0.218878 -0.081952
0.0339469 0.226861 -0.0814398
0.0339305 0.218942 -0.0829497
0.0339229 0.226925 -0.0824374
0.0344059 0.219506 -0.0839273
0.0339065 0.219006 -0.0839473
0.0338998 0.225991 -0.0834991
0.0339114 0.226458 -0.0829683
0.0343818 0.21957 -0.0849249
0.0338825 0.21907 -0.084945
0.0338777 0.224059 -0.0846248
0.0338892 0.224526 -0.084094
0.0343771 0.22456 -0.0846048
0.0338883 0.225524 -0.08403
0.03387 0.219601 -0.0854118
0.033869 0.220599 -0.0853478
0.0338565 0.22113 -0.0858146
0.0338546 0.223126 -0.0856865
0.0338662 0.223592 -0.0851557
0.033844 0.221661 -0.0862814
0.0338431 0.222659 -0.0862174
0.0330856 0.22002 -0.0763449
0.0330741 0.219553 -0.0768757
0.0330847 0.221018 -0.0762809
0.0330837 0.222016 -0.0762168
0.0330828 0.223014 -0.0761528
0.0330818 0.224012 -0.0760888
0.0330809 0.22501 -0.0760248
0.0330684 0.225541 -0.0764916
0.0330635 0.218088 -0.0774706
0.033052 0.217621 -0.0780015
0.0335513 0.218122 -0.0779814
0.0330626 0.219086 -0.0774066
0.0330559 0.226072 -0.0769584
0.0330434 0.226603 -0.0774252
0.0330279 0.217685 -0.0789991
0.0330193 0.226667 -0.0784229
0.0330039 0.217749 -0.0799968
0.0329953 0.226731 -0.0794205
0.0334792 0.218314 -0.0809744
0.0329799 0.217813 -0.0809944
0.0329713 0.226795 -0.0804182
0.0334552 0.218378 -0.0819721
0.0329558 0.217877 -0.0819921
0.0329472 0.226859 -0.0814158
0.0334312 0.218442 -0.0829697
0.0329318 0.217941 -0.0829898
0.0329232 0.226923 -0.0824135
0.0329193 0.218472 -0.0834566
0.0329068 0.219003 -0.0839234
0.0329001 0.225989 -0.0834752
0.0329117 0.226456 -0.0829444
0.0328828 0.219067 -0.0849211
0.032878 0.224057 -0.0846009
0.0328895 0.224524 -0.0840701
0.0328886 0.225522 -0.084006
0.0328703 0.219598 -0.0853879
0.0328578 0.220129 -0.0858547
0.0333571 0.220629 -0.0858346
0.0328549 0.223123 -0.0856626
0.0328664 0.22359 -0.0851318
0.0328453 0.22066 -0.0863215
0.0328443 0.221658 -0.0862575
0.0328434 0.222656 -0.0861935
0.0320869 0.21902 -0.076385
0.0320753 0.218553 -0.0769158
0.0325747 0.219053 -0.0768958
0.0320859 0.220018 -0.076321
0.032085 0.221016 -0.0762569
0.032084 0.222014 -0.0761929
0.0320831 0.223012 -0.0761289
0.0320821 0.22401 -0.0760649
0.0320812 0.225008 -0.0760008
0.0320687 0.225538 -0.0764676
0.0320638 0.218086 -0.0774467
0.0320523 0.217619 -0.0779775
0.0320562 0.226069 -0.0769345
0.0320437 0.2266 -0.0774013
0.0320282 0.217683 -0.0789752
0.0320196 0.226664 -0.0783989
0.0320042 0.217747 -0.0799729
0.0319956 0.226728 -0.0793966
0.0319802 0.217811 -0.0809705
0.0319716 0.226792 -0.0803943
0.0319561 0.217875 -0.0819682
0.0319475 0.226856 -0.0813919
0.0319321 0.217939 -0.0829658
0.0319244 0.225922 -0.0824536
0.031936 0.226389 -0.0819228
0.0324238 0.226423 -0.0824336
0.0324074 0.218503 -0.0839435
0.031908 0.218003 -0.0839635
0.0319014 0.224988 -0.0835153
0.0319129 0.225455 -0.0829845
0.0324007 0.225489 -0.0834952
0.0323834 0.218567 -0.0849411
0.031884 0.218067 -0.0849612
0.0318783 0.224054 -0.084577
0.0318898 0.224521 -0.0840461
0.0318715 0.218598 -0.085428
0.031859 0.219129 -0.0858948
0.0323584 0.219629 -0.0858747
0.0318552 0.223121 -0.0856387
0.0318667 0.223588 -0.0851078
0.0318465 0.21966 -0.0863616
0.0318456 0.220658 -0.0862976
0.0318446 0.221656 -0.0862336
0.0318437 0.222654 -0.0861695
0.0310872 0.219017 -0.0763611
0.0310756 0.21855 -0.0768919
0.0310862 0.220015 -0.076297
0.0310853 0.221013 -0.076233
0.0310843 0.222011 -0.076169
0.0310834 0.223009 -0.076105
0.0310824 0.224007 -0.0760409
0.0310814 0.225005 -0.0759769
0.0310689 0.225536 -0.0764437
0.0310641 0.218083 -0.0774228
0.0310525 0.217616 -0.0779536
0.0310564 0.226067 -0.0769105
0.031044 0.226598 -0.0773773
0.0310285 0.21768 -0.0789513
0.0315193 0.227162 -0.078355
0.0310315 0.227129 -0.0778442
0.031019 0.22766 -0.078311
0.0310045 0.217744 -0.0799489
0.0314953 0.227226 -0.0793526
0.0309949 0.227724 -0.0793086
0.0309929 0.217277 -0.0804798
0.0309814 0.21681 -0.0810106
0.0314808 0.217311 -0.0809906
0.0314712 0.22729 -0.0803503
0.0309709 0.227788 -0.0803063
0.0309689 0.217341 -0.0814774
0.0309564 0.217872 -0.0819443
0.0309478 0.226854 -0.081368
0.0309593 0.227321 -0.0808371
0.0309324 0.217936 -0.0829419
0.0309247 0.22592 -0.0824297
0.0309363 0.226387 -0.0818988
0.0309083 0.218 -0.0839396
0.0309016 0.224986 -0.0834914
0.0309132 0.225453 -0.0829605
0.0308843 0.218064 -0.0849372
0.0308786 0.224052 -0.0845531
0.0308901 0.224519 -0.0840222
0.0308995 0.189655 -0.0872609
0.030888 0.189188 -0.0877918
0.0313873 0.189688 -0.0877717
0.0313864 0.190686 -0.0877077
0.0308985 0.190653 -0.0871969
0.0313854 0.191684 -0.0876436
0.0308976 0.191651 -0.0871329
0.0313845 0.192682 -0.0875796
0.0308966 0.192649 -0.0870688
0.0308841 0.19318 -0.0875356
0.0308718 0.218595 -0.0854041
0.0308593 0.219126 -0.0858709
0.0308555 0.223118 -0.0856148
0.030867 0.223585 -0.0850839
0.0308764 0.188721 -0.0883226
0.0308649 0.188254 -0.0888534
0.0313642 0.188754 -0.0888334
0.0313633 0.189752 -0.0887694
0.0313623 0.19075 -0.0887053
0.0313614 0.191748 -0.0886413
0.0313604 0.192746 -0.0885773
0.0308716 0.193711 -0.0880025
0.0313595 0.193744 -0.0885132
0.0308591 0.194242 -0.0884693
0.0308468 0.219657 -0.0863377
0.0308459 0.220655 -0.0862737
0.0308449 0.221653 -0.0862096
0.0308439 0.222651 -0.0861456
0.0308524 0.188785 -0.0893203
0.0308399 0.189316 -0.0897871
0.0313393 0.189816 -0.089767
0.0313383 0.190814 -0.089703
0.0313373 0.191812 -0.089639
0.0313364 0.19281 -0.0895749
0.0308476 0.193775 -0.0890001
0.0308361 0.193308 -0.089531
0.0308274 0.189847 -0.0902539
0.0308264 0.190845 -0.0901899
0.0308255 0.191843 -0.0901258
0.0308245 0.192841 -0.0900618
0.0300875 0.219015 -0.0763372
0.0300759 0.218548 -0.076868
0.0300865 0.220013 -0.0762731
0.0300856 0.221011 -0.0762091
0.0300846 0.222009 -0.0761451
0.0300836 0.223007 -0.076081
0.0300827 0.224005 -0.076017
0.0300817 0.225003 -0.075953
0.0305686 0.226034 -0.0763997
0.0300808 0.226 -0.0758889
0.0300683 0.226531 -0.0763558
0.0300653 0.217083 -0.0774629
0.0300538 0.216616 -0.0779937
0.0305532 0.217116 -0.0779737
0.0300644 0.218081 -0.0773988
0.0305436 0.227096 -0.0773334
0.0300558 0.227062 -0.0768226
0.0300433 0.227593 -0.0772894
0.0305291 0.21718 -0.0789713
0.0300298 0.21668 -0.0789914
0.0300193 0.227657 -0.0782871
0.0305051 0.217244 -0.079969
0.0300057 0.216744 -0.079989
0.0299952 0.227721 -0.0792847
0.0299817 0.216808 -0.0809867
0.0299712 0.227785 -0.0802824
0.030457 0.217372 -0.0819643
0.0299576 0.216872 -0.0819844
0.0299481 0.226851 -0.0813441
0.0299596 0.227318 -0.0808132
0.030433 0.217436 -0.082962
0.0299336 0.216936 -0.082982
0.029925 0.225917 -0.0824058
0.0299366 0.226384 -0.0818749
0.0299459 0.19152 -0.0851136
0.0299344 0.191053 -0.0856444
0.0304338 0.191553 -0.0856244
0.0304328 0.192551 -0.0855604
0.029945 0.192518 -0.0850496
0.0299325 0.193049 -0.0855164
0.030409 0.2175 -0.0839596
0.0299096 0.217 -0.0839797
0.0299019 0.224983 -0.0834674
0.0299135 0.22545 -0.0829366
0.0299257 0.187592 -0.0863674
0.0299142 0.187125 -0.0868982
0.0304136 0.187626 -0.0868782
0.0304126 0.188624 -0.0868141
0.0299248 0.18859 -0.0863034
0.0304117 0.189622 -0.0867501
0.0299238 0.189588 -0.0862393
0.0304107 0.19062 -0.0866861
0.0299229 0.190586 -0.0861753
0.0304097 0.191617 -0.0866221
0.0304088 0.192615 -0.086558
0.02992 0.19358 -0.0859832
0.0304078 0.193613 -0.086494
0.0304069 0.194611 -0.08643
0.029919 0.194578 -0.0859192
0.0299065 0.195109 -0.086386
0.0303849 0.217564 -0.0849573
0.0298855 0.217064 -0.0849773
0.0298789 0.22405 -0.0845291
0.0298904 0.224516 -0.0839983
0.0299026 0.186658 -0.0874291
0.0298911 0.186191 -0.0879599
0.0303905 0.186692 -0.0879399
0.0303895 0.18769 -0.0878758
0.0303886 0.188688 -0.0878118
0.0303838 0.193677 -0.0874917
0.0303828 0.194675 -0.0874276
0.0298941 0.19564 -0.0868528
0.0303819 0.195673 -0.0873636
0.0298816 0.196171 -0.0873196
0.029873 0.217595 -0.0854442
0.0298605 0.218126 -0.085911
0.0303599 0.218626 -0.0858909
0.0298558 0.223116 -0.0855908
0.0298673 0.223583 -0.08506
0.0298786 0.186722 -0.0884267
0.0298661 0.187253 -0.0888935
0.0303655 0.187754 -0.0888735
0.0303588 0.194739 -0.0884253
0.0303579 0.195737 -0.0883613
0.0298691 0.196702 -0.0877864
0.0303569 0.196735 -0.0882972
0.0298566 0.197233 -0.0882533
0.0298481 0.218657 -0.0863778
0.0298471 0.219655 -0.0863138
0.0298461 0.220653 -0.0862497
0.0298452 0.221651 -0.0861857
0.0298442 0.222649 -0.0861217
0.0298536 0.187784 -0.0893604
0.0298411 0.188315 -0.0898272
0.0303405 0.188816 -0.0898071
0.0303357 0.193805 -0.089487
0.0303348 0.194803 -0.089423
0.0303338 0.195801 -0.0893589
0.0303329 0.196799 -0.0892949
0.0298325 0.197297 -0.0892509
0.0298286 0.188846 -0.090294
0.0298277 0.189844 -0.09023
0.0298267 0.190842 -0.0901659
0.0298142 0.191373 -0.0906328
0.0303136 0.191873 -0.0906127
0.0303126 0.192871 -0.0905487
0.0303117 0.193869 -0.0904846
0.0303107 0.194867 -0.0904206
0.0303098 0.195865 -0.0903566
0.0303088 0.196863 -0.0902926
0.0298085 0.197361 -0.0902486
0.0298017 0.191904 -0.0910996
0.0298008 0.192902 -0.0910355
0.0297998 0.1939 -0.0909715
0.0297989 0.194898 -0.0909075
0.0297979 0.195896 -0.0908435
0.029797 0.196894 -0.0907794
0.0290887 0.218014 -0.0763773
0.0290772 0.217547 -0.0769081
0.0295765 0.218048 -0.076888
0.0290877 0.219012 -0.0763132
0.0290868 0.22001 -0.0762492
0.0290858 0.221008 -0.0761852
0.0290849 0.222006 -0.0761211
0.0290839 0.223004 -0.0760571
0.029083 0.224002 -0.0759931
0.029082 0.225 -0.0759291
0.0290811 0.225998 -0.075865
0.0295679 0.227029 -0.0763118
0.0290801 0.226996 -0.075801
0.0290676 0.227527 -0.0762678
0.0290656 0.21708 -0.0774389
0.0290541 0.216613 -0.0779698
0.0290436 0.227591 -0.0772655
0.02903 0.216677 -0.0789675
0.0290195 0.227655 -0.0782631
0.029006 0.216741 -0.0799651
0.0289955 0.227719 -0.0792608
0.0289945 0.216274 -0.080496
0.0289829 0.215807 -0.0810268
0.0294823 0.216308 -0.0810068
0.0289715 0.227783 -0.0802585
0.0294583 0.216372 -0.0820044
0.0289589 0.215871 -0.0820245
0.0294478 0.227349 -0.0813001
0.0289474 0.227847 -0.0812561
0.0289741 0.187462 -0.0843481
0.0289626 0.186995 -0.084879
0.0294619 0.187495 -0.0848589
0.029461 0.188493 -0.0847949
0.0289731 0.18846 -0.0842841
0.02946 0.189491 -0.0847309
0.0289722 0.189458 -0.0842201
0.0294591 0.190489 -0.0846668
0.0289712 0.190456 -0.084156
0.0294581 0.191487 -0.0846028
0.0289703 0.191454 -0.084092
0.0294572 0.192485 -0.0845388
0.0289693 0.192452 -0.084028
0.0294562 0.193483 -0.0844748
0.0289684 0.19345 -0.083964
0.0289559 0.193981 -0.0844308
0.0294342 0.216436 -0.0830021
0.0289349 0.215935 -0.0830221
0.0294247 0.226415 -0.0823618
0.0289244 0.226913 -0.0823178
0.0289359 0.22738 -0.081787
0.028951 0.186528 -0.0854098
0.0289395 0.186061 -0.0859407
0.0294388 0.186561 -0.0859206
0.0294379 0.187559 -0.0858566
0.0294369 0.188557 -0.0857926
0.029436 0.189555 -0.0857285
0.029435 0.190553 -0.0856645
0.0294322 0.193547 -0.0854724
0.0289434 0.194512 -0.0848976
0.0294312 0.194545 -0.0854084
0.0294303 0.195543 -0.0853444
0.0289424 0.19551 -0.0848336
0.0294293 0.196541 -0.0852803
0.0289415 0.196507 -0.0847695
0.028929 0.197038 -0.0852363
0.0294102 0.2165 -0.0839997
0.0289108 0.215999 -0.0840198
0.0289022 0.224981 -0.0834435
0.0289138 0.225448 -0.0829127
0.0289128 0.226446 -0.0828486
0.0289279 0.185594 -0.0864715
0.0289164 0.185127 -0.0870024
0.0294158 0.185627 -0.0869823
0.0294148 0.186625 -0.0869183
0.0294062 0.195607 -0.086342
0.0294053 0.196605 -0.086278
0.0289165 0.197569 -0.0857032
0.0294043 0.197603 -0.086214
0.028904 0.1981 -0.08617
0.0288983 0.21653 -0.0844866
0.0288858 0.217061 -0.0849534
0.0288791 0.224047 -0.0845052
0.0288907 0.224514 -0.0839744
0.0293917 0.185691 -0.08798
0.0288924 0.185191 -0.088
0.0293812 0.196669 -0.0872756
0.0293803 0.197667 -0.0872116
0.0288915 0.198631 -0.0866368
0.0293793 0.198665 -0.0871476
0.028879 0.199162 -0.0871036
0.0293612 0.217626 -0.085931
0.0288618 0.217125 -0.0859511
0.028857 0.222115 -0.0856309
0.0288686 0.222582 -0.0851001
0.0293564 0.222615 -0.0856109
0.0288676 0.22358 -0.0850361
0.0288799 0.185722 -0.0884668
0.0288674 0.186253 -0.0889337
0.0293667 0.186753 -0.0889136
0.0293562 0.197731 -0.0882093
0.0293553 0.198729 -0.0881452
0.0288549 0.199226 -0.0881013
0.0288493 0.217656 -0.0864179
0.0288483 0.218654 -0.0863539
0.0288474 0.219652 -0.0862898
0.0288464 0.22065 -0.0862258
0.0288455 0.221648 -0.0861618
0.0288549 0.186784 -0.0894005
0.0288539 0.187782 -0.0893364
0.0288414 0.188313 -0.0898033
0.0293322 0.197795 -0.0892069
0.0293312 0.198793 -0.0891429
0.0288309 0.19929 -0.0890989
0.0288289 0.188844 -0.0902701
0.028828 0.189842 -0.090206
0.028827 0.19084 -0.090142
0.0288145 0.191371 -0.0906088
0.0293082 0.197859 -0.0902046
0.0293072 0.198857 -0.0901406
0.0288069 0.199354 -0.0900966
0.028802 0.191902 -0.0910756
0.0288011 0.1929 -0.0910116
0.0288001 0.193898 -0.0909476
0.0287992 0.194896 -0.0908836
0.0287867 0.195426 -0.0913504
0.029286 0.195927 -0.0913303
0.0292851 0.196925 -0.0912663
0.0292841 0.197923 -0.0912023
0.0292832 0.198921 -0.0911382
0.0287828 0.199418 -0.0910943
0.0287742 0.195957 -0.0918172
0.0287732 0.196955 -0.0917532
0.0287723 0.197953 -0.0916891
0.0287713 0.198951 -0.0916251
0.0281121 0.218946 -0.0752916
0.0281005 0.218479 -0.0758225
0.0285999 0.218979 -0.0758024
0.028599 0.219977 -0.0757384
0.0281111 0.219944 -0.0752276
0.028598 0.220975 -0.0756744
0.0281102 0.220942 -0.0751636
0.028597 0.221973 -0.0756103
0.0281092 0.22194 -0.0750996
0.0285961 0.222971 -0.0755463
0.0281083 0.222938 -0.0750355
0.0285951 0.223969 -0.0754823
0.0281073 0.223936 -0.0749715
0.0285942 0.224967 -0.0754183
0.0281063 0.224934 -0.0749075
0.0285932 0.225965 -0.0753542
0.0281054 0.225932 -0.0748434
0.0280929 0.226462 -0.0753103
0.0280899 0.217014 -0.0764174
0.0280784 0.216547 -0.0769482
0.0285778 0.217047 -0.0769282
0.028089 0.218012 -0.0763533
0.0280804 0.226993 -0.0757771
0.0280679 0.227524 -0.0762439
0.0280669 0.21608 -0.0774791
0.0280553 0.215613 -0.0780099
0.0285547 0.216113 -0.0779898
0.0285432 0.228089 -0.0772215
0.0280554 0.228055 -0.0767107
0.0280429 0.228586 -0.0771775
0.0285307 0.216177 -0.0789875
0.0280313 0.215677 -0.0790076
0.0285192 0.228153 -0.0782192
0.0280189 0.22865 -0.0781752
0.0285066 0.216241 -0.0799852
0.0280073 0.215741 -0.0800052
0.0284952 0.228217 -0.0792168
0.0279948 0.228714 -0.0791728
0.0280215 0.188329 -0.0822649
0.02801 0.187862 -0.0827957
0.0285093 0.188363 -0.0827756
0.0285084 0.189361 -0.0827116
0.0280205 0.189327 -0.0822008
0.0285074 0.190359 -0.0826476
0.0280196 0.190325 -0.0821368
0.0285065 0.191357 -0.0825836
0.0280186 0.191323 -0.0820728
0.0285055 0.192354 -0.0825195
0.0280177 0.192321 -0.0820087
0.0285046 0.193352 -0.0824555
0.0280167 0.193319 -0.0819447
0.0280042 0.19385 -0.0824115
0.0279832 0.215805 -0.0810029
0.0284711 0.228281 -0.0802145
0.0279708 0.228778 -0.0801705
0.0279984 0.187395 -0.0833265
0.0279869 0.186929 -0.0838574
0.0284863 0.187429 -0.0838373
0.0284853 0.188427 -0.0837733
0.0284843 0.189425 -0.0837093
0.0284834 0.190423 -0.0836453
0.0284824 0.191421 -0.0835812
0.0284815 0.192418 -0.0835172
0.0284805 0.193416 -0.0834532
0.0279917 0.194381 -0.0828783
0.0284796 0.194414 -0.0833891
0.0284786 0.195412 -0.0833251
0.0279908 0.195379 -0.0828143
0.0284777 0.19641 -0.0832611
0.0279898 0.196377 -0.0827503
0.0279773 0.196908 -0.0832171
0.0279592 0.215869 -0.0820005
0.0279477 0.227844 -0.0812322
0.0279593 0.228311 -0.0807013
0.0279763 0.185464 -0.0844523
0.0279647 0.184997 -0.0849831
0.0284641 0.185497 -0.0849631
0.0284632 0.186495 -0.084899
0.0279753 0.186462 -0.0843882
0.0284555 0.194478 -0.0843868
0.0284546 0.195476 -0.0843228
0.0284536 0.196474 -0.0842587
0.0279648 0.197439 -0.0836839
0.0284527 0.197472 -0.0841947
0.0279523 0.19797 -0.0841507
0.0279351 0.215933 -0.0829982
0.028424 0.227411 -0.0822738
0.0279237 0.227908 -0.0822298
0.0279542 0.183532 -0.085578
0.0279426 0.183065 -0.0861088
0.028442 0.183565 -0.0860888
0.028441 0.184563 -0.0860248
0.0279532 0.18453 -0.085514
0.0284401 0.185561 -0.0859607
0.0284286 0.197536 -0.0851924
0.0279398 0.198501 -0.0846175
0.0284277 0.198534 -0.0851283
0.0279273 0.199032 -0.0850844
0.0279111 0.215997 -0.0839959