<VTKFile type="UnstructuredGrid" version="0.1" byte_order="BigEndian">
  <UnstructuredGrid>
    <Piece NumberOfPoints="18954" NumberOfCells="37908">
      <PointData>
        <DataArray type="Float64" Name="position" NumberOfComponents="3" format="ascii">
0.0451417 0.2253 -0.0789738
0.045147 0.224834 -0.0795055
0.0456452 0.225335 -0.079469
0.0456416 0.226333 -0.0794035
0.0451381 0.226298 -0.0789082
0.0456381 0.22733 -0.0793379
0.0451345 0.227296 -0.0788427
0.0451363 0.227828 -0.0793088
0.0456524 0.2254 -0.0804668
0.0451542 0.2249 -0.0805033
0.0456488 0.226398 -0.0804013
0.0456452 0.227396 -0.0803357
0.0451381 0.228359 -0.0797749
0.0456416 0.228394 -0.0802701
0.0451398 0.228891 -0.080241
0.0456595 0.225466 -0.0814647
0.0451613 0.224965 -0.0815011
0.0456559 0.226464 -0.0813991
0.0456524 0.227462 -0.0813335
0.0456488 0.228459 -0.0812679
0.045147 0.228957 -0.0812388
0.0456667 0.225531 -0.0824625
0.0451685 0.225031 -0.082499
0.0456631 0.226529 -0.0823969
0.0456595 0.227527 -0.0823313
0.0456559 0.228525 -0.0822658
0.0451541 0.229022 -0.0822367
0.0451703 0.225563 -0.0829651
0.045172 0.226094 -0.0834312
0.0456702 0.226595 -0.0833947
0.0456666 0.227593 -0.0833292
0.0451595 0.228556 -0.0827684
0.0451649 0.22809 -0.0833001
0.0451738 0.226626 -0.0838973
0.0451702 0.227624 -0.0838318
0.044131 0.224168 -0.0770511
0.0441363 0.223702 -0.0775828
0.0446345 0.224203 -0.0775463
0.044631 0.2252 -0.0774808
0.0441274 0.225166 -0.0769855
0.0446274 0.226198 -0.0774152
0.0441238 0.226164 -0.07692
0.0446238 0.227196 -0.0773496
0.0441202 0.227162 -0.0768544
0.044122 0.227693 -0.0773205
0.0446417 0.224268 -0.0785441
0.0441435 0.223768 -0.0785806
0.0446381 0.225266 -0.0784786
0.0446345 0.226264 -0.078413
0.0446309 0.227262 -0.0783474
0.0441238 0.228225 -0.0777866
0.0446274 0.228259 -0.0782819
0.0441256 0.228757 -0.0782528
0.0446488 0.224334 -0.079542
0.0441506 0.223833 -0.0795784
0.0446345 0.228325 -0.0792797
0.0441327 0.228822 -0.0792506
0.044656 0.224399 -0.0805398
0.0441578 0.223899 -0.0805763
0.0446381 0.229389 -0.0802119
0.0441345 0.229354 -0.0797167
0.0441363 0.229886 -0.0801828
0.0446631 0.224465 -0.0815376
0.0441649 0.223964 -0.0815741
0.0446452 0.229454 -0.0812097
0.0441434 0.229951 -0.0811806
0.0446703 0.224531 -0.0825354
0.0441721 0.22403 -0.0825719
0.0446524 0.22952 -0.0822076
0.0441506 0.230017 -0.0821785
0.0446774 0.224596 -0.0835332
0.0441792 0.224096 -0.0835697
0.0446738 0.225594 -0.0834677
0.0446631 0.228587 -0.083271
0.0441613 0.229085 -0.0832419
0.044156 0.229551 -0.0827102
0.044181 0.224627 -0.0840358
0.0441774 0.225625 -0.0839703
0.0441739 0.226623 -0.0839047
0.0441703 0.227621 -0.0838391
0.0441667 0.228619 -0.0837736
0.0431131 0.225032 -0.0749973
0.0431185 0.224566 -0.0755289
0.0436167 0.225066 -0.0754925
0.0436131 0.226064 -0.0754269
0.0431096 0.22603 -0.0749317
0.0436095 0.227062 -0.0753613
0.043106 0.227027 -0.0748661
0.0431078 0.227559 -0.0753322
0.0431239 0.224099 -0.0760606
0.0431292 0.223633 -0.0765923
0.0436274 0.224134 -0.0765559
0.0436238 0.225132 -0.0764903
0.0436203 0.22613 -0.0764247
0.0436167 0.227127 -0.0763592
0.0431095 0.228091 -0.0757984
0.0436131 0.228125 -0.0762936
0.0431113 0.228623 -0.0762645
0.0431346 0.223167 -0.077124
0.04314 0.222701 -0.0776557
0.0436382 0.223202 -0.0776193
0.0436202 0.228191 -0.0772914
0.0431131 0.229154 -0.0767306
0.0436167 0.229189 -0.0772258
0.0431149 0.229686 -0.0771967
0.0436453 0.223267 -0.0786171
0.0431471 0.222767 -0.0786536
0.0436238 0.229254 -0.0782236
0.043122 0.229752 -0.0781945
0.0436524 0.223333 -0.0796149
0.0431543 0.222832 -0.0796514
0.043631 0.22932 -0.0792215
0.0431292 0.229817 -0.0791924
0.0436596 0.223398 -0.0806127
0.0431614 0.222898 -0.0806492
0.0431363 0.229883 -0.0801902
0.0436667 0.223464 -0.0816105
0.0431686 0.222963 -0.081647
0.0431435 0.229948 -0.081188
0.0436739 0.22353 -0.0826084
0.0431757 0.223029 -0.0826448
0.0431542 0.229016 -0.0822514
0.0431488 0.229482 -0.0817197
0.0436524 0.229517 -0.0822149
0.043681 0.223595 -0.0836062
0.0431828 0.223095 -0.0836427
0.0431614 0.229082 -0.0832492
0.0431846 0.223626 -0.0841088
0.043181 0.224624 -0.0840432
0.0431775 0.225622 -0.0839776
0.0431739 0.22662 -0.0839121
0.0431703 0.227618 -0.0838465
0.0431667 0.228616 -0.0837809
0.0421167 0.224031 -0.0750702
0.0421221 0.223565 -0.0756019
0.0426203 0.224065 -0.0755654
0.0421132 0.225029 -0.0750046
0.0421096 0.226026 -0.074939
0.0421114 0.226558 -0.0754052
0.0426096 0.227059 -0.0753687
0.0421275 0.223099 -0.0761336
0.0421328 0.222632 -0.0766653
0.042631 0.223133 -0.0766288
0.0421132 0.22709 -0.0758713
0.0421149 0.227622 -0.0763374
0.0426131 0.228122 -0.0763009
0.04214 0.222698 -0.0776631
0.0421167 0.228153 -0.0768035
0.0421185 0.228685 -0.0772697
0.0426167 0.229186 -0.0772332
0.0421454 0.222232 -0.0781948
0.0421507 0.221766 -0.0787265
0.0426489 0.222266 -0.07869
0.0421203 0.229217 -0.0777358
0.0421221 0.229748 -0.0782019
0.0426561 0.222332 -0.0796878
0.0421579 0.221831 -0.0797243
0.0421292 0.229814 -0.0791997
0.0426632 0.222397 -0.0806857
0.042165 0.221897 -0.0807221
0.0421364 0.22988 -0.0801976
0.0421668 0.222429 -0.0811883
0.0421686 0.22296 -0.0816544
0.0421471 0.228947 -0.0812609
0.0421417 0.229414 -0.0807293
0.0426453 0.229448 -0.0812245
0.0421757 0.223026 -0.0826522
0.0421542 0.229013 -0.0822588
0.0421829 0.223092 -0.08365
0.042165 0.228081 -0.0833222
0.0421596 0.228547 -0.0827905
0.0426632 0.228581 -0.0832857
0.0421847 0.223623 -0.0841161
0.0421811 0.224621 -0.0840506
0.0421775 0.225619 -0.083985
0.0421739 0.226617 -0.0839194
0.0421703 0.227615 -0.0838539
0.0411204 0.22303 -0.0751431
0.0411257 0.222564 -0.0756748
0.0416239 0.223064 -0.0756384
0.0411168 0.224028 -0.0750776
0.0411132 0.225026 -0.075012
0.0411096 0.226023 -0.0749464
0.0411114 0.226555 -0.0754125
0.0411311 0.222098 -0.0762065
0.0411365 0.221631 -0.0767382
0.0416346 0.222132 -0.0767018
0.0411132 0.227087 -0.0758787
0.041115 0.227619 -0.0763448
0.0416418 0.222198 -0.0776996
0.0411436 0.221697 -0.077736
0.0416203 0.228185 -0.0773061
0.0411221 0.227684 -0.0773426
0.041149 0.221231 -0.0782677
0.0411543 0.220765 -0.0787994
0.0416525 0.221265 -0.078763
0.0411239 0.228216 -0.0778087
0.0411257 0.228748 -0.0782749
0.0416239 0.229248 -0.0782384
0.0416597 0.221331 -0.0797608
0.0411615 0.22083 -0.0797973
0.041631 0.229314 -0.0792362
0.0411328 0.228813 -0.0792727
0.0416668 0.221396 -0.0807586
0.0411686 0.220896 -0.0807951
0.0416382 0.229379 -0.080234
0.04114 0.228879 -0.0802705
0.0411704 0.221428 -0.0812612
0.0411722 0.221959 -0.0817273
0.0416704 0.22246 -0.0816909
0.0411507 0.227946 -0.0813339
0.0411453 0.228413 -0.0808022
0.0416489 0.228447 -0.0812974
0.0416775 0.222526 -0.0826887
0.0411793 0.222025 -0.0827251
0.0411614 0.227014 -0.0823973
0.0411561 0.22748 -0.0818656
0.0416596 0.227515 -0.0823608
0.041656 0.228513 -0.0822952
0.0411811 0.222557 -0.0831913
0.0411829 0.223088 -0.0836574
0.0416668 0.22758 -0.0833586
0.0411686 0.22708 -0.0833951
0.0411847 0.22362 -0.0841235
0.0411811 0.224618 -0.0840579
0.0411775 0.225616 -0.0839924
0.0411739 0.226614 -0.0839268
0.0401097 0.223959 -0.0740871
0.040115 0.223493 -0.0746188
0.0406132 0.223993 -0.0745823
0.0406096 0.224991 -0.0745168
0.0401061 0.224957 -0.0740215
0.0401079 0.225489 -0.0744877
0.040124 0.222029 -0.0752161
0.0401293 0.221563 -0.0757478
0.0406275 0.222063 -0.0757113
0.0401204 0.223027 -0.0751505
0.0401096 0.22602 -0.0749538
0.0401114 0.226552 -0.0754199
0.0401365 0.221628 -0.0767456
0.0401132 0.227084 -0.075886
0.040115 0.227615 -0.0763522
0.0401419 0.221162 -0.0772773
0.0401472 0.220696 -0.077809
0.0406454 0.221197 -0.0777725
0.0401221 0.227681 -0.07735
0.0401544 0.220762 -0.0788068
0.0406275 0.228247 -0.0783113
0.0401293 0.227747 -0.0783478
0.0401615 0.220827 -0.0798046
0.0406346 0.228313 -0.0793091
0.0401364 0.227812 -0.0793456
0.0401687 0.220893 -0.0808024
0.0406418 0.228378 -0.080307
0.0401436 0.227878 -0.0803434
0.040674 0.221459 -0.0817638
0.0401758 0.220958 -0.0818003
0.0401507 0.227943 -0.0813413
0.0401776 0.22149 -0.0822664
0.0401794 0.222022 -0.0827325
0.0401615 0.227011 -0.0824046
0.0401561 0.227477 -0.081873
0.0401812 0.222554 -0.0831986
0.0401829 0.223085 -0.0836648
0.0401686 0.227077 -0.0834025
0.0401847 0.223617 -0.0841309
0.0401811 0.224615 -0.0840653
0.0401776 0.225613 -0.0839997
0.040174 0.226611 -0.0839342
0.0391097 0.223956 -0.0740945
0.0391151 0.22349 -0.0746262
0.0391061 0.224954 -0.0740289
0.0391079 0.225485 -0.074495
0.039124 0.222026 -0.0752234
0.0391294 0.22156 -0.0757551
0.0391204 0.223024 -0.0751579
0.0391097 0.226017 -0.0749611
0.0391115 0.226549 -0.0754273
0.0391347 0.221094 -0.0762868
0.0391401 0.220627 -0.0768185
0.0396383 0.221128 -0.0767821
0.0391132 0.227081 -0.0758934
0.039115 0.227612 -0.0763595
0.0391472 0.220693 -0.0778163
0.0391222 0.227678 -0.0773573
0.0391526 0.220227 -0.078348
0.039158 0.219761 -0.0788797
0.0396562 0.220261 -0.0788433
0.0391293 0.227743 -0.0783552
0.0396633 0.220327 -0.0798411
0.0391651 0.219826 -0.0798776
0.0391365 0.227809 -0.079353
0.0396705 0.220392 -0.0808389
0.0391723 0.219892 -0.0808754
0.0391436 0.227875 -0.0803508
0.0391741 0.220424 -0.0813415
0.0391758 0.220955 -0.0818076
0.0391508 0.22794 -0.0813486
0.0396812 0.221521 -0.082769
0.039183 0.221021 -0.0828055
0.0391615 0.227008 -0.082412
0.0391561 0.227474 -0.0818803
0.0391848 0.221553 -0.0832716
0.0391866 0.222084 -0.0837377
0.0396847 0.222585 -0.0837012
0.0391758 0.225078 -0.083541
0.0391704 0.225544 -0.0830093
0.039674 0.225578 -0.0835045
0.0391669 0.226542 -0.0829437
0.0396704 0.226576 -0.0834389
0.0391883 0.222616 -0.0842038
0.0391848 0.223614 -0.0841383
0.0391812 0.224612 -0.0840727
0.0386133 0.223987 -0.0745971
0.0386097 0.224985 -0.0745315
0.0381276 0.221025 -0.0752964
0.038133 0.220559 -0.0758281
0.0386312 0.221059 -0.0757916
0.038124 0.222023 -0.0752308
0.0381205 0.223021 -0.0751652
0.0381169 0.224018 -0.0750997
0.0381133 0.225016 -0.0750341
0.0381097 0.226014 -0.0749685
0.0381115 0.226546 -0.0754346
0.0381401 0.220624 -0.0768259
0.0386168 0.227112 -0.076396
0.0381186 0.226611 -0.0764325
0.0381455 0.220158 -0.0773576
0.0381509 0.219692 -0.0778893
0.0386491 0.220193 -0.0778528
0.0381204 0.227143 -0.0768986
0.0381222 0.227675 -0.0773647
0.038158 0.219758 -0.0788871
0.0381294 0.22774 -0.0783625
0.0381652 0.219823 -0.0798849
0.0381365 0.227806 -0.0793603
0.0381723 0.219889 -0.0808828
0.0381437 0.227872 -0.0803582
0.0386776 0.220455 -0.0818441
0.0381795 0.219954 -0.0818806
0.0381544 0.226939 -0.0814216
0.038149 0.227405 -0.0808899
0.0386526 0.22744 -0.0813851
0.0381812 0.220486 -0.0823467
0.038183 0.221018 -0.0828128
0.0381615 0.227005 -0.0824194
0.0386884 0.221584 -0.0837742
0.0381902 0.221083 -0.0838106
0.0381758 0.225075 -0.0835483
0.0381705 0.225541 -0.0830167
0.0381669 0.226539 -0.0829511
0.038192 0.221615 -0.0842768
0.0381884 0.222613 -0.0842112
0.0381848 0.223611 -0.0841456
0.0381812 0.224609 -0.08408
0.0371277 0.221022 -0.0753037
0.037133 0.220556 -0.0758354
0.0371241 0.22202 -0.0752382
0.0371205 0.223017 -0.0751726
0.0371169 0.224015 -0.075107
0.0371133 0.225013 -0.0750415
0.0371151 0.225545 -0.0755076
0.0376133 0.226045 -0.0754711
0.0371384 0.220089 -0.0763671
0.0371437 0.219623 -0.0768988
0.0376419 0.220124 -0.0768624
0.0371169 0.226077 -0.0759737
0.0371187 0.226608 -0.0764398
0.0371509 0.219689 -0.0778967
0.0371205 0.22714 -0.076906
0.0371222 0.227672 -0.0773721
0.0371563 0.219223 -0.0784284
0.0371616 0.218757 -0.07896
0.0376598 0.219257 -0.0789236
0.0371294 0.227737 -0.0783699
0.037667 0.219323 -0.0799214
0.0371688 0.218822 -0.0799579
0.0371365 0.227803 -0.0793677
0.0371706 0.219354 -0.080424
0.0371723 0.219886 -0.0808901
0.0371473 0.226871 -0.0804311
0.0371419 0.227337 -0.0798994
0.0376455 0.227371 -0.0803946
0.0371795 0.219951 -0.0818879
0.0371544 0.226936 -0.0814289
0.0376848 0.220517 -0.0828493
0.0371866 0.220017 -0.0828858
0.0371651 0.226004 -0.0824923
0.0371598 0.22647 -0.0819606
0.0376633 0.226504 -0.0824559
0.037692 0.220583 -0.0838471
0.0371938 0.220083 -0.0838836
0.0371759 0.225072 -0.0835557
0.0371705 0.225538 -0.083024
0.0371956 0.220614 -0.0843497
0.037192 0.221612 -0.0842841
0.0371884 0.22261 -0.0842186
0.0371848 0.223608 -0.084153
0.0371812 0.224606 -0.0840874
0.0361313 0.220021 -0.0753767
0.0361366 0.219555 -0.0759084
0.0366348 0.220055 -0.0758719
0.0361277 0.221019 -0.0753111
0.0361241 0.222016 -0.0752455
0.0361205 0.223014 -0.07518
0.0361169 0.224012 -0.0751144
0.0361134 0.22501 -0.0750488
0.0361151 0.225542 -0.0755149
0.036142 0.219089 -0.0764401
0.0361474 0.218622 -0.0769718
0.0366456 0.219123 -0.0769353
0.0361169 0.226073 -0.0759811
0.0361187 0.226605 -0.0764472
0.0366527 0.219188 -0.0779331
0.0361545 0.218688 -0.0779696
0.036624 0.227171 -0.0774085
0.0361259 0.226671 -0.077445
0.0361617 0.218754 -0.0789674
0.0366312 0.227237 -0.0784064
0.036133 0.226736 -0.0784428
0.0361688 0.218819 -0.0799652
0.0366383 0.227302 -0.0794042
0.0361402 0.226802 -0.0794407
0.0366741 0.219385 -0.0809266
0.036176 0.218885 -0.0809631
0.0361473 0.226868 -0.0804385
0.0366813 0.219451 -0.0819244
0.0361831 0.21895 -0.0819609
0.0361544 0.226933 -0.0814363
0.0361849 0.219482 -0.082427
0.0361867 0.220014 -0.0828931
0.0361652 0.226001 -0.0824997
0.0361598 0.226467 -0.081968
0.0361938 0.220079 -0.0838909
0.0361759 0.225069 -0.0835631
0.0361705 0.225535 -0.0830314
0.0361956 0.220611 -0.0843571
0.0361974 0.221143 -0.0848232
0.0366956 0.221643 -0.0847867
0.036692 0.222641 -0.0847212
0.0361902 0.223139 -0.0846921
0.0361849 0.223605 -0.0841604
0.0361813 0.224603 -0.0840948
0.0361992 0.221675 -0.0852893
0.0361956 0.222672 -0.0852237
0.0351313 0.220018 -0.0753841
0.0351367 0.219552 -0.0759158
0.0351277 0.221016 -0.0753185
0.0351241 0.222013 -0.0752529
0.0351206 0.223011 -0.0751873
0.035117 0.224009 -0.0751218
0.0351134 0.225007 -0.0750562
0.0351152 0.225539 -0.0755223
0.035142 0.219085 -0.0764474
0.0351474 0.218619 -0.0769791
0.035117 0.22607 -0.0759884
0.0351187 0.226602 -0.0764546
0.0351528 0.218153 -0.0775108
0.0351581 0.217687 -0.0780425
0.0356563 0.218188 -0.0780061
0.0351259 0.226668 -0.0774524
0.0356635 0.218253 -0.0790039
0.0351653 0.217753 -0.0790404
0.035133 0.226733 -0.0784502
0.0351671 0.218284 -0.0795065
0.0351688 0.218816 -0.0799726
0.0351402 0.226799 -0.079448
0.035176 0.218882 -0.0809704
0.0351473 0.226864 -0.0804458
0.0351831 0.218947 -0.0819682
0.0351545 0.22693 -0.0814437
0.0356885 0.219513 -0.0829296
0.0351903 0.219013 -0.0829661
0.0351652 0.225998 -0.0825071
0.0351598 0.226464 -0.0819754
0.0356956 0.219579 -0.0839274
0.0351974 0.219078 -0.0839639
0.0351795 0.224068 -0.083636
0.0351742 0.224534 -0.0831043
0.0356777 0.224568 -0.0835996
0.0351706 0.225532 -0.0830388
0.0351992 0.21961 -0.08443
0.0351956 0.220608 -0.0843644
0.0351974 0.22114 -0.0848306
0.0351903 0.223135 -0.0846994
0.0351849 0.223602 -0.0841677
0.0351992 0.221671 -0.0852967
0.0351956 0.222669 -0.0852311
0.0341313 0.220015 -0.0753914
0.0341367 0.219548 -0.0759231
0.0341277 0.221012 -0.0753258
0.0341242 0.22201 -0.0752603
0.0341206 0.223008 -0.0751947
0.034117 0.224006 -0.0751291
0.0341134 0.225004 -0.0750636
0.0341152 0.225535 -0.0755297
0.0341456 0.218084 -0.0765204
0.034151 0.217618 -0.0770521
0.0346492 0.218119 -0.0770156
0.0341421 0.219082 -0.0764548
0.034117 0.226067 -0.0759958
0.0341188 0.226599 -0.0764619
0.0341582 0.217684 -0.0780499
0.0341259 0.226665 -0.0774598
0.0341653 0.21775 -0.0790477
0.0341331 0.22673 -0.0784576
0.0346706 0.218316 -0.0800091
0.0341724 0.217815 -0.0800455
0.0341402 0.226796 -0.0794554
0.0346778 0.218381 -0.0810069
0.0341796 0.217881 -0.0810434
0.0341474 0.226861 -0.0804532
0.0346849 0.218447 -0.0820047
0.0341867 0.217946 -0.0820412
0.0341545 0.226927 -0.081451
0.0341885 0.218478 -0.0825073
0.0341903 0.21901 -0.0829734
0.0341652 0.225995 -0.0825144
0.0341599 0.226461 -0.0819827
0.0341975 0.219075 -0.0839713
0.0341796 0.224065 -0.0836434
0.0341742 0.224531 -0.0831117
0.0341706 0.225529 -0.0830461
0.0341992 0.219607 -0.0844374
0.034201 0.220139 -0.0849035
0.0346992 0.220639 -0.084867
0.0341903 0.223132 -0.0847068
0.0341849 0.223598 -0.0841751
0.0342028 0.220671 -0.0853696
0.0341992 0.221668 -0.0853041
0.0341956 0.222666 -0.0852385
0.0331349 0.219014 -0.0754644
0.0331403 0.218547 -0.0759961
0.0336385 0.219048 -0.0759596
0.0331314 0.220011 -0.0753988
0.0331278 0.221009 -0.0753332
0.0331242 0.222007 -0.0752676
0.0331206 0.223005 -0.0752021
0.033117 0.224003 -0.0751365
0.0331135 0.225001 -0.0750709
0.0331152 0.225532 -0.0755371
0.0331457 0.218081 -0.0765278
0.033151 0.217615 -0.0770595
0.033117 0.226064 -0.0760032
0.0331188 0.226596 -0.0764693
0.0331582 0.217681 -0.0780573
0.033126 0.226661 -0.0774671
0.0331653 0.217746 -0.0790551
0.0331331 0.226727 -0.0784649
0.0331725 0.217812 -0.0800529
0.0331402 0.226793 -0.0794628
0.0331796 0.217878 -0.0810507
0.0331474 0.226858 -0.0804606
0.0331868 0.217943 -0.0820486
0.0331581 0.225926 -0.081524
0.0331528 0.226392 -0.0809923
0.0336563 0.226426 -0.0814875
0.0336921 0.218509 -0.0830099
0.0331939 0.218009 -0.0830464
0.0331689 0.224994 -0.0825874
0.0331635 0.22546 -0.0820557
0.033667 0.225494 -0.0825509
0.0336993 0.218575 -0.0840077
0.0332011 0.218074 -0.0840442
0.0331796 0.224061 -0.0836508
0.0331742 0.224528 -0.0831191
0.0332029 0.218606 -0.0845103
0.0332046 0.219138 -0.0849764
0.0337028 0.219638 -0.08494
0.0331903 0.223129 -0.0847142
0.0331849 0.223595 -0.0841825
0.0332064 0.21967 -0.0854426
0.0332028 0.220667 -0.085377
0.0331993 0.221665 -0.0853114
0.0331957 0.222663 -0.0852459
0.032135 0.219011 -0.0754717
0.0321403 0.218544 -0.0760034
0.0321314 0.220008 -0.0754062
0.0321278 0.221006 -0.0753406
0.0321242 0.222004 -0.075275
0.0321206 0.223002 -0.0752094
0.0321171 0.224 -0.0751439
0.0321135 0.224998 -0.0750783
0.0321153 0.225529 -0.0755444
0.0321457 0.218078 -0.0765351
0.0321511 0.217612 -0.0770668
0.0321171 0.226061 -0.0760105
0.0321188 0.226593 -0.0764767
0.0321582 0.217678 -0.0780646
0.0326242 0.227159 -0.077438
0.0321206 0.227124 -0.0769428
0.0321224 0.227656 -0.0774089
0.0321654 0.217743 -0.0790625
0.0326313 0.227224 -0.0784358
0.0321296 0.227722 -0.0784067
0.0321707 0.217277 -0.0795942
0.0321761 0.216811 -0.0801259
0.0326743 0.217312 -0.0800894
0.0326385 0.22729 -0.0794337
0.0321367 0.227787 -0.0794046
0.0321779 0.217343 -0.080592
0.0321797 0.217875 -0.0810581
0.0321474 0.226855 -0.0804679
0.0321421 0.227321 -0.0799363
0.0321868 0.21794 -0.0820559
0.0321582 0.225923 -0.0815313
0.0321528 0.226389 -0.0809996
0.032194 0.218006 -0.0830537
0.0321689 0.224991 -0.0825947
0.0321635 0.225457 -0.082063
0.0322011 0.218071 -0.0840516
0.0321796 0.224058 -0.0836581
0.0321743 0.224524 -0.0831264
0.0323068 0.189666 -0.0864193
0.0323121 0.1892 -0.086951
0.0328103 0.1897 -0.0869145
0.0328067 0.190698 -0.0868489
0.0323032 0.190663 -0.0863537
0.0328031 0.191696 -0.0867834
0.0322996 0.191661 -0.0862881
0.0327996 0.192694 -0.0867178
0.032296 0.192659 -0.0862226
0.0322978 0.193191 -0.0866887
0.0322029 0.218603 -0.0845177
0.0322047 0.219135 -0.0849838
0.0321903 0.223126 -0.0847215
0.032185 0.223592 -0.0841898
0.0323175 0.188733 -0.0874827
0.0323228 0.188267 -0.0880144
0.032821 0.188768 -0.0879779
0.0328175 0.189766 -0.0879123
0.0328139 0.190763 -0.0878468
0.0328103 0.191761 -0.0877812
0.0328067 0.192759 -0.0877156
0.0322996 0.193723 -0.0871548
0.0328031 0.193757 -0.08765
0.0323014 0.194254 -0.0876209
0.0322065 0.219666 -0.0854499
0.0322029 0.220664 -0.0853844
0.0321993 0.221662 -0.0853188
0.0321957 0.22266 -0.0852532
0.0323246 0.188799 -0.0884805
0.0323264 0.189331 -0.0889466
0.0328246 0.189831 -0.0889102
0.032821 0.190829 -0.0888446
0.0328174 0.191827 -0.088779
0.0328139 0.192825 -0.0887134
0.0323067 0.193788 -0.0881526
0.0323121 0.193322 -0.0886843
0.0323282 0.189862 -0.0894128
0.0323246 0.19086 -0.0893472
0.032321 0.191858 -0.0892816
0.0323175 0.192856 -0.089216
0.031135 0.219007 -0.0754791
0.0311404 0.218541 -0.0760108
0.0311314 0.220005 -0.0754135
0.0311278 0.221003 -0.075348
0.0311243 0.222001 -0.0752824
0.0311207 0.222999 -0.0752168
0.0311171 0.223997 -0.0751512
0.0311135 0.224994 -0.0750857
0.0316135 0.226027 -0.0755153
0.0311099 0.225992 -0.0750201
0.0311117 0.226524 -0.0754862
0.0311493 0.217077 -0.0766081
0.0311547 0.216611 -0.0771398
0.0316529 0.217112 -0.0771033
0.0311457 0.218075 -0.0765425
0.0316171 0.22709 -0.0764476
0.0311135 0.227056 -0.0759523
0.0311153 0.227587 -0.0764185
0.03166 0.217177 -0.0781011
0.0311618 0.216677 -0.0781376
0.0311224 0.227653 -0.0774163
0.0316672 0.217243 -0.0790989
0.031169 0.216742 -0.0791354
0.0311296 0.227719 -0.0784141
0.0311761 0.216808 -0.0801332
0.0311367 0.227784 -0.0794119
0.0316815 0.217374 -0.0810946
0.0311833 0.216874 -0.081131
0.0311475 0.226852 -0.0804753
0.0311421 0.227318 -0.0799436
0.0316886 0.21744 -0.0820924
0.0311904 0.216939 -0.0821289
0.0311582 0.22592 -0.0815387
0.0311528 0.226386 -0.081007
0.0312853 0.191527 -0.0842999
0.0312907 0.191061 -0.0848316
0.0317889 0.191561 -0.0847951
0.0317853 0.192559 -0.0847295
0.0312817 0.192525 -0.0842343
0.0312835 0.193057 -0.0847004
0.0316958 0.217505 -0.0830902
0.0311976 0.217005 -0.0831267
0.0311689 0.224988 -0.0826021
0.0311636 0.225454 -0.0820704
0.0313068 0.187601 -0.08556
0.0313122 0.187135 -0.0860917
0.0318104 0.187636 -0.0860552
0.0318068 0.188633 -0.0859896
0.0313032 0.188599 -0.0854944
0.0318032 0.189631 -0.0859241
0.0312996 0.189597 -0.0854288
0.0317996 0.190629 -0.0858585
0.0312961 0.190595 -0.0853633
0.031796 0.191627 -0.0857929
0.0317925 0.192625 -0.0857273
0.0312853 0.193588 -0.0851665
0.0317889 0.193623 -0.0856618
0.0317853 0.19462 -0.0855962
0.0312817 0.194586 -0.085101
0.0312835 0.195118 -0.0855671
0.0317029 0.217571 -0.084088
0.0312047 0.21707 -0.0841245
0.0311796 0.224055 -0.0836655
0.0311743 0.224521 -0.0831338
0.0313175 0.186669 -0.0866234
0.0313229 0.186203 -0.0871551
0.0318211 0.186703 -0.0871186
0.0318175 0.187701 -0.087053
0.0318139 0.188699 -0.0869875
0.031796 0.193688 -0.0866596
0.0317924 0.194686 -0.086594
0.0312853 0.19565 -0.0860332
0.0317889 0.195684 -0.0865285
0.0312871 0.196181 -0.0864993
0.0312065 0.217602 -0.0845906
0.0312083 0.218134 -0.0850568
0.0317065 0.218634 -0.0850203
0.0311904 0.223123 -0.0847289
0.031185 0.223589 -0.0841972
0.0313247 0.186735 -0.0876212
0.0313265 0.187266 -0.0880873
0.0318247 0.187767 -0.0880509
0.0317996 0.194752 -0.0875918
0.031796 0.19575 -0.0875263
0.0312889 0.196713 -0.0869655
0.0317924 0.196747 -0.0874607
0.0312906 0.197245 -0.0874316
0.0312101 0.218666 -0.0855229
0.0312065 0.219663 -0.0854573
0.0312029 0.220661 -0.0853917
0.0311993 0.221659 -0.0853262
0.0311957 0.222657 -0.0852606
0.0313282 0.187798 -0.0885534
0.03133 0.18833 -0.0890196
0.0318282 0.18883 -0.0889831
0.0318103 0.193819 -0.0886552
0.0318067 0.194817 -0.0885897
0.0318032 0.195815 -0.0885241
0.0317996 0.196813 -0.0884585
0.0312978 0.19731 -0.0884294
0.0313318 0.188861 -0.0894857
0.0313282 0.189859 -0.0894201
0.0313246 0.190857 -0.0893545
0.0313264 0.191389 -0.0898207
0.0318246 0.191889 -0.0897842
0.031821 0.192887 -0.0897186
0.0318175 0.193885 -0.0896531
0.0318139 0.194883 -0.0895875
0.0318103 0.195881 -0.0895219
0.0318067 0.196879 -0.0894563
0.0313049 0.197376 -0.0894272
0.0313282 0.191921 -0.0902868
0.0313246 0.192918 -0.0902212
0.0313211 0.193916 -0.0901557
0.0313175 0.194914 -0.0900901
0.0313139 0.195912 -0.0900245
0.0313103 0.19691 -0.0899589
0.0301386 0.218006 -0.075552
0.030144 0.21754 -0.0760837
0.0306422 0.218041 -0.0760473
0.030135 0.219004 -0.0754865
0.0301315 0.220002 -0.0754209
0.0301279 0.221 -0.0753553
0.0301243 0.221998 -0.0752897
0.0301207 0.222996 -0.0752242
0.0301171 0.223994 -0.0751586
0.0301135 0.224991 -0.075093
0.03011 0.225989 -0.0750275
0.0306099 0.227021 -0.0754571
0.0301064 0.226987 -0.0749619
0.0301082 0.227519 -0.075428
0.0301494 0.217074 -0.0766154
0.0301547 0.216608 -0.0771471
0.0301153 0.227584 -0.0764258
0.0301619 0.216674 -0.0781449
0.0301225 0.22765 -0.0774236
0.030169 0.216739 -0.0791428
0.0301296 0.227716 -0.0784215
0.0301744 0.216273 -0.0796745
0.0301797 0.215807 -0.0802062
0.0306779 0.216308 -0.0801697
0.0301368 0.227781 -0.0794193
0.0306851 0.216373 -0.0811675
0.0301869 0.215873 -0.081204
0.0306457 0.227349 -0.0804462
0.0301439 0.227847 -0.0804171
0.0302925 0.187467 -0.0835717
0.0302979 0.187001 -0.0841034
0.0307961 0.187501 -0.0840669
0.0307925 0.188499 -0.0840014
0.030289 0.188465 -0.0835061
0.0307889 0.189497 -0.0839358
0.0302854 0.189463 -0.0834406
0.0307853 0.190495 -0.0838702
0.0302818 0.19046 -0.083375
0.0307818 0.191493 -0.0838046
0.0302782 0.191458 -0.0833094
0.0307782 0.192491 -0.0837391
0.0302746 0.192456 -0.0832438
0.0307746 0.193488 -0.0836735
0.030271 0.193454 -0.0831783
0.0302728 0.193986 -0.0836444
0.0306922 0.216439 -0.0821653
0.030194 0.215938 -0.0822018
0.0306564 0.226417 -0.0815096
0.0301546 0.226914 -0.0814805
0.0301493 0.227381 -0.0809488
0.0303033 0.186535 -0.0846351
0.0303086 0.186069 -0.0851668
0.0308068 0.186569 -0.0851303
0.0308032 0.187567 -0.0850648
0.0307997 0.188565 -0.0849992
0.0307961 0.189563 -0.0849336
0.0307925 0.19056 -0.084868
0.0307818 0.193554 -0.0846713
0.0302746 0.194517 -0.0841105
0.0307782 0.194552 -0.0846057
0.0307746 0.19555 -0.0845402
0.030271 0.195515 -0.084045
0.030771 0.196547 -0.0844746
0.0302675 0.196513 -0.0839794
0.0302692 0.197045 -0.0844455
0.0306994 0.216504 -0.0831632
0.0302012 0.216004 -0.0831996
0.030169 0.224984 -0.0826095
0.0301636 0.225451 -0.0820778
0.03016 0.226448 -0.0820122
0.030314 0.185602 -0.0856985
0.0303194 0.185136 -0.0862302
0.0308176 0.185637 -0.0861937
0.030814 0.186635 -0.0861282
0.0307817 0.195615 -0.085538
0.0307782 0.196613 -0.0854724
0.030271 0.197577 -0.0849116
0.0307746 0.197611 -0.0854069
0.0302728 0.198108 -0.0853777
0.030203 0.216536 -0.0836657
0.0302048 0.217067 -0.0841319
0.0301797 0.224052 -0.0836729
0.0301743 0.224518 -0.0831412
0.0308247 0.185702 -0.0871915
0.0303265 0.185202 -0.087228
0.0307853 0.196679 -0.0864702
0.0307817 0.197677 -0.0864047
0.0302746 0.19864 -0.0858439
0.0307781 0.198674 -0.0863391
0.0302764 0.199172 -0.08631
0.0307101 0.217633 -0.0850932
0.0302119 0.217133 -0.0851297
0.030194 0.222122 -0.0848018
0.0301886 0.222588 -0.0842701
0.0306922 0.222623 -0.0847654
0.030185 0.223586 -0.0842046
0.0303283 0.185734 -0.0876941
0.0303301 0.186265 -0.0881603
0.0308283 0.186766 -0.0881238
0.0307889 0.197742 -0.0874025
0.0307853 0.19874 -0.0873369
0.0302835 0.199237 -0.0873078
0.0302137 0.217665 -0.0855958
0.0302101 0.218662 -0.0855302
0.0302065 0.21966 -0.0854647
0.0302029 0.220658 -0.0853991
0.0301994 0.221656 -0.0853335
0.0303319 0.186797 -0.0886264
0.0303283 0.187795 -0.0885608
0.0303301 0.188327 -0.0890269
0.030796 0.197808 -0.0884003
0.0307924 0.198806 -0.0883347
0.0302907 0.199303 -0.0883056
0.0303318 0.188858 -0.0894931
0.0303283 0.189856 -0.0894275
0.0303247 0.190854 -0.0893619
0.0303265 0.191386 -0.089828
0.0308032 0.197873 -0.0893981
0.0307996 0.198871 -0.0893326
0.0302978 0.199369 -0.0893035
0.0303282 0.191918 -0.0902942
0.0303247 0.192915 -0.0902286
0.0303211 0.193913 -0.090163
0.0303175 0.194911 -0.0900974
0.0303193 0.195443 -0.0905636
0.0308175 0.195943 -0.0905271
0.0308139 0.196941 -0.0904615
0.0308103 0.197939 -0.090396
0.0308067 0.198937 -0.0903304
0.030305 0.199434 -0.0903013
0.0303211 0.195974 -0.0910297
0.0303175 0.196972 -0.0909641
0.0303139 0.19797 -0.0908985
0.0303103 0.198968 -0.090833
0.0291279 0.218936 -0.074496
0.0291333 0.218469 -0.0750277
0.0296315 0.21897 -0.0749912
0.0296279 0.219968 -0.0749257
0.0291243 0.219933 -0.0744304
0.0296243 0.220966 -0.0748601
0.0291208 0.220931 -0.0743649
0.0296207 0.221963 -0.0747945
0.0291172 0.221929 -0.0742993
0.0296172 0.222961 -0.0747289
0.0291136 0.222927 -0.0742337
0.0296136 0.223959 -0.0746634
0.02911 0.223925 -0.0741681
0.02961 0.224957 -0.0745978
0.0291064 0.224923 -0.0741026
0.0296064 0.225955 -0.0745322
0.0291029 0.22592 -0.074037
0.0291046 0.226452 -0.0745031
0.0291422 0.217006 -0.075625
0.0291476 0.216539 -0.0761567
0.0296458 0.21704 -0.0761202
0.0291387 0.218003 -0.0755594
0.0291064 0.226984 -0.0749693
0.0291082 0.227516 -0.0754354
0.029153 0.216073 -0.0766884
0.0291583 0.215607 -0.0772201
0.0296565 0.216108 -0.0771836
0.0296135 0.228082 -0.0763967
0.02911 0.228047 -0.0759015
0.0291118 0.228579 -0.0763676
0.0296637 0.216173 -0.0781814
0.0291655 0.215673 -0.0782179
0.0296207 0.228147 -0.0773945
0.0291189 0.228645 -0.0773654
0.0296708 0.216239 -0.0791792
0.0291726 0.215738 -0.0792157
0.0296278 0.228213 -0.0783924
0.0291261 0.22871 -0.0783633
0.0292747 0.188331 -0.0815179
0.0292801 0.187864 -0.0820496
0.0297782 0.188365 -0.0820131
0.0297747 0.189363 -0.0819475
0.0292711 0.189328 -0.0814523
0.0297711 0.190361 -0.0818819
0.0292675 0.190326 -0.0813867
0.0297675 0.191358 -0.0818164
0.0292639 0.191324 -0.0813211
0.0297639 0.192356 -0.0817508
0.0292604 0.192322 -0.0812556
0.0297603 0.193354 -0.0816852
0.0292568 0.19332 -0.08119
0.0292586 0.193851 -0.0816561
0.0291798 0.215804 -0.0802135
0.029635 0.228279 -0.0793902
0.0291332 0.228776 -0.0793611
0.0292854 0.187398 -0.0825813
0.0292908 0.186932 -0.083113
0.029789 0.187433 -0.0830765
0.0297854 0.18843 -0.0830109
0.0297818 0.189428 -0.0829453
0.0297782 0.190426 -0.0828798
0.0297747 0.191424 -0.0828142
0.0297711 0.192422 -0.0827486
0.0297675 0.19342 -0.082683
0.0292603 0.194383 -0.0821222
0.0297639 0.194417 -0.0826175
0.0297603 0.195415 -0.0825519
0.0292568 0.195381 -0.0820567
0.0297567 0.196413 -0.0824863
0.0292532 0.196379 -0.0819911
0.029255 0.196911 -0.0824572
0.0291869 0.21587 -0.0812113
0.0291439 0.227844 -0.0804245
0.0291386 0.22831 -0.0798928
0.0292997 0.185468 -0.0837102
0.0293051 0.185002 -0.0842419
0.0298033 0.185503 -0.0842054
0.0297997 0.1865 -0.0841399
0.0292961 0.186466 -0.0836447
0.0297711 0.194483 -0.0836153
0.0297675 0.195481 -0.0835497
0.0297639 0.196479 -0.0834842
0.0292568 0.197442 -0.0829234
0.0297603 0.197477 -0.0834186
0.0292585 0.197974 -0.0833895
0.0291941 0.215935 -0.0822092
0.0296529 0.227412 -0.0814514
0.0291511 0.227909 -0.0814223
0.029314 0.183538 -0.0848392
0.0293194 0.183072 -0.0853709
0.0298176 0.183572 -0.0853344
0.029814 0.18457 -0.0852688
0.0293105 0.184536 -0.0847736
0.0298104 0.185568 -0.0852033
0.0297675 0.197542 -0.0844164
0.0292603 0.198506 -0.0838556
0.0297639 0.19854 -0.0843508