<VTKFile type="UnstructuredGrid" version="0.1" byte_order="BigEndian">
  <UnstructuredGrid>
    <Piece NumberOfPoints="18954" NumberOfCells="37908">
      <PointData>
        <DataArray type="Float64" Name="position" NumberOfComponents="3" format="ascii">
0.0440802 0.225505 -0.0800563
0.0440701 0.22504 -0.0805896
0.0445694 0.225541 -0.0805656
0.0445682 0.226538 -0.0804965
0.044079 0.226502 -0.0799872
0.044567 0.227536 -0.0804273
0.0440778 0.2275 -0.079918
0.0440665 0.228033 -0.0803821
0.044548 0.22561 -0.081563
0.0440487 0.22511 -0.081587
0.0445468 0.226607 -0.0814938
0.0445456 0.227605 -0.0814247
0.0440552 0.228567 -0.0808462
0.0445444 0.228603 -0.0813555
0.0440439 0.2291 -0.0813103
0.0445267 0.225679 -0.0825604
0.0440274 0.225179 -0.0825843
0.0445255 0.226676 -0.0824912
0.0445242 0.227674 -0.0824221
0.044523 0.228672 -0.0823529
0.0440225 0.229169 -0.0823077
0.0445053 0.225748 -0.0835578
0.044006 0.225248 -0.0835817
0.0445041 0.226746 -0.0834886
0.0445029 0.227743 -0.0834194
0.0445017 0.228741 -0.0833503
0.0440012 0.229238 -0.0833051
0.0439947 0.225781 -0.0840458
0.0439834 0.226315 -0.0845099
0.0444827 0.226815 -0.084486
0.0444815 0.227812 -0.0844168
0.0439911 0.228774 -0.0838384
0.043981 0.22831 -0.0843716
0.0439721 0.226848 -0.0849741
0.0439709 0.227846 -0.0849049
0.0431244 0.224366 -0.0781095
0.0431143 0.223902 -0.0786428
0.0436136 0.224402 -0.0786188
0.0436124 0.2254 -0.0785496
0.0431232 0.225364 -0.0780403
0.0436112 0.226397 -0.0784805
0.043122 0.226361 -0.0779712
0.0436099 0.227395 -0.0784113
0.0431207 0.227359 -0.077902
0.0431095 0.227892 -0.0783661
0.0435922 0.224471 -0.0796162
0.0430929 0.223971 -0.0796401
0.043591 0.225469 -0.079547
0.0435898 0.226466 -0.0794778
0.0435886 0.227464 -0.0794087
0.0430982 0.228426 -0.0788302
0.0435874 0.228462 -0.0793395
0.0430869 0.228959 -0.0792943
0.0435708 0.22454 -0.0806135
0.0430716 0.22404 -0.0806375
0.043566 0.228531 -0.0803369
0.0430655 0.229028 -0.0802917
0.0435495 0.224609 -0.0816109
0.0430502 0.224109 -0.0816349
0.0435434 0.229597 -0.0812651
0.0430542 0.229562 -0.0807558
0.0430429 0.230095 -0.0812199
0.0435281 0.224679 -0.0826083
0.0430288 0.224178 -0.0826323
0.0435221 0.229667 -0.0822625
0.0430216 0.230164 -0.0822173
0.0435067 0.224748 -0.0836057
0.0430074 0.224248 -0.0836297
0.0435007 0.229736 -0.0832599
0.0430002 0.230233 -0.0832147
0.0434854 0.224817 -0.0846031
0.0429861 0.224317 -0.084627
0.0434841 0.225814 -0.0845339
0.0434805 0.228807 -0.0843264
0.04298 0.229305 -0.0842812
0.0429901 0.229769 -0.083748
0.0429748 0.22485 -0.0850911
0.0429736 0.225848 -0.085022
0.0429724 0.226845 -0.0849528
0.0429712 0.227843 -0.0848837
0.04297 0.22884 -0.0848145
0.0421661 0.225223 -0.0760243
0.042156 0.224759 -0.0765576
0.0426553 0.225259 -0.0765336
0.0426541 0.226256 -0.0764645
0.0421649 0.226221 -0.0759552
0.0426529 0.227254 -0.0763953
0.0421637 0.227218 -0.075886
0.0421524 0.227751 -0.0763501
0.042146 0.224294 -0.0770909
0.0421359 0.22383 -0.0776241
0.0426352 0.22433 -0.0776002
0.042634 0.225328 -0.077531
0.0426328 0.226326 -0.0774619
0.0426315 0.227323 -0.0773927
0.0421411 0.228285 -0.0768142
0.0426303 0.228321 -0.0773235
0.0421298 0.228818 -0.0772783
0.0421258 0.223366 -0.0781574
0.0421157 0.222902 -0.0786907
0.042615 0.223402 -0.0786667
0.042609 0.22839 -0.0783209
0.0421186 0.229352 -0.0777424
0.0426078 0.229387 -0.0782518
0.0421073 0.229885 -0.0782066
0.0425936 0.223471 -0.0796641
0.0420944 0.222971 -0.0796881
0.0425864 0.229457 -0.0792491
0.0420859 0.229954 -0.0792039
0.0425723 0.22354 -0.0806615
0.042073 0.22304 -0.0806854
0.042565 0.229526 -0.0802465
0.0420645 0.230023 -0.0802013
0.0425509 0.223609 -0.0816589
0.0420516 0.223109 -0.0816828
0.0420432 0.230092 -0.0811987
0.0425295 0.223678 -0.0826562
0.0420303 0.223178 -0.0826802
0.0420218 0.230161 -0.0821961
0.0425082 0.223747 -0.0836536
0.0420089 0.223247 -0.0836776
0.0420016 0.229233 -0.0832626
0.0420117 0.229697 -0.0827293
0.0425009 0.229733 -0.0832387
0.0424868 0.223817 -0.084651
0.0419875 0.223316 -0.084675
0.0419803 0.229302 -0.08426
0.0419762 0.22385 -0.0851391
0.041975 0.224847 -0.0850699
0.0419738 0.225845 -0.0850007
0.0419726 0.226843 -0.0849316
0.0419714 0.22784 -0.0848624
0.0419702 0.228838 -0.0847933
0.0411676 0.224223 -0.0760723
0.0411575 0.223758 -0.0766055
0.0416568 0.224259 -0.0765816
0.0411664 0.22522 -0.0760031
0.0411652 0.226218 -0.0759339
0.0411539 0.226751 -0.076398
0.0416531 0.227251 -0.0763741
0.0411474 0.223294 -0.0771388
0.0411373 0.22283 -0.0776721
0.0416366 0.22333 -0.0776481
0.0411426 0.227285 -0.0768622
0.0411313 0.227818 -0.0773263
0.0416306 0.228318 -0.0773023
0.041116 0.222899 -0.0786694
0.04112 0.228351 -0.0777904
0.0411087 0.228885 -0.0782545
0.041608 0.229385 -0.0782305
0.0411059 0.222435 -0.0792027
0.0410958 0.221971 -0.079736
0.0415951 0.222471 -0.079712
0.0410974 0.229418 -0.0787186
0.0410861 0.229951 -0.0791827
0.0415737 0.22254 -0.0807094
0.0410744 0.22204 -0.0807334
0.0410648 0.23002 -0.0801801
0.0415523 0.222609 -0.0817068
0.0410531 0.222109 -0.0817307
0.0410434 0.23009 -0.0811775
0.0410418 0.222642 -0.0821949
0.0410305 0.223175 -0.082659
0.0410232 0.229161 -0.082244
0.0410333 0.229625 -0.0817107
0.0415225 0.229661 -0.08222
0.0410091 0.223245 -0.0836563
0.0410019 0.22923 -0.0832414
0.0409877 0.223314 -0.0846537
0.0409817 0.228302 -0.0843079
0.0409918 0.228766 -0.0837747
0.041481 0.228802 -0.084284
0.0409765 0.223847 -0.0851178
0.0409752 0.224845 -0.0850487
0.040974 0.225842 -0.0849795
0.0409728 0.22684 -0.0849104
0.0409716 0.227837 -0.0848412
0.040169 0.223222 -0.0761202
0.0401589 0.222758 -0.0766534
0.0406582 0.223258 -0.0766295
0.0401678 0.22422 -0.076051
0.0401666 0.225218 -0.0759819
0.0401654 0.226215 -0.0759127
0.0401541 0.226748 -0.0763768
0.0401488 0.222294 -0.0771867
0.0401388 0.22183 -0.07772
0.040638 0.22233 -0.077696
0.0401428 0.227282 -0.0768409
0.0401315 0.227815 -0.077305
0.0406167 0.222399 -0.0786934
0.0401174 0.221899 -0.0787174
0.0406094 0.228384 -0.0782784
0.0401101 0.227884 -0.0783024
0.0401073 0.221434 -0.0792506
0.0400972 0.22097 -0.0797839
0.0405965 0.22147 -0.0797599
0.0400989 0.228418 -0.0787665
0.0400876 0.228951 -0.0792306
0.0405868 0.229451 -0.0792067
0.0405751 0.221539 -0.0807573
0.0400759 0.221039 -0.0807813
0.0405655 0.22952 -0.080204
0.0400662 0.22902 -0.080228
0.0405538 0.221609 -0.0817547
0.0400545 0.221108 -0.0817787
0.0405441 0.229589 -0.0812014
0.0400448 0.229089 -0.0812254
0.0400432 0.221642 -0.0822428
0.0400319 0.222175 -0.0827069
0.0405312 0.222675 -0.0826829
0.0400247 0.228161 -0.0822919
0.0400347 0.228625 -0.0817587
0.040524 0.228661 -0.082268
0.0405098 0.222744 -0.0836803
0.0400105 0.222244 -0.0837043
0.0400045 0.227232 -0.0833585
0.0400146 0.227697 -0.0828252
0.0405038 0.227732 -0.0833345
0.0405026 0.22873 -0.0832653
0.0399993 0.222778 -0.0841684
0.039988 0.223311 -0.0846325
0.0404824 0.227802 -0.0843319
0.0399831 0.227301 -0.0843558
0.0399767 0.223844 -0.0850966
0.0399755 0.224842 -0.0850274
0.0399743 0.22584 -0.0849583
0.0399731 0.226837 -0.0848891
0.0391894 0.224148 -0.0750324
0.0391793 0.223684 -0.0755657
0.0396786 0.224184 -0.0755417
0.0396774 0.225182 -0.0754726
0.0391882 0.225146 -0.0749632
0.0391769 0.225679 -0.0754274
0.0391704 0.222222 -0.0761681
0.0391604 0.221758 -0.0767014
0.0396596 0.222258 -0.0766774
0.0391692 0.22322 -0.0760989
0.0391656 0.226212 -0.0758915
0.0391543 0.226746 -0.0763556
0.039139 0.221827 -0.0776988
0.039143 0.227279 -0.0768197
0.0391317 0.227813 -0.0772838
0.0391289 0.221363 -0.078232
0.0391188 0.220898 -0.0787653
0.0396181 0.221399 -0.0787413
0.0391104 0.227882 -0.0782812
0.0390975 0.220968 -0.0797627
0.0395883 0.228451 -0.0792546
0.039089 0.227951 -0.0792786
0.0390761 0.221037 -0.0807601
0.0395669 0.22852 -0.080252
0.0390676 0.22802 -0.0802759
0.0390547 0.221106 -0.0817574
0.0395455 0.228589 -0.0812494
0.0390463 0.228089 -0.0812733
0.0395326 0.221675 -0.0827308
0.0390334 0.221175 -0.0827548
0.0390249 0.228158 -0.0822707
0.0390221 0.221708 -0.0832189
0.0390108 0.222242 -0.083683
0.0390047 0.22723 -0.0833372
0.0390148 0.227694 -0.082804
0.0389995 0.222775 -0.0841471
0.0389882 0.223308 -0.0846113
0.0389834 0.227299 -0.0843346
0.0389769 0.223842 -0.0850754
0.0389757 0.224839 -0.0850062
0.0389745 0.225837 -0.084937
0.0389733 0.226835 -0.0848679
0.0381896 0.224145 -0.0750112
0.0381795 0.223681 -0.0755444
0.0381884 0.225143 -0.074942
0.0381771 0.225676 -0.0754061
0.0381707 0.222219 -0.0761469
0.0381606 0.221755 -0.0766801
0.0381695 0.223217 -0.0760777
0.0381658 0.22621 -0.0758702
0.0381545 0.226743 -0.0763343
0.0381505 0.221291 -0.0772134
0.0381404 0.220827 -0.0777467
0.0386397 0.221327 -0.0777227
0.0381433 0.227276 -0.0767985
0.038132 0.22781 -0.0772626
0.0381191 0.220896 -0.0787441
0.0381106 0.227879 -0.0782599
0.038109 0.220431 -0.0792773
0.0380989 0.219967 -0.0798106
0.0385982 0.220467 -0.0797866
0.0380892 0.227948 -0.0792573
0.0385768 0.220537 -0.080784
0.0380775 0.220036 -0.080808
0.0380679 0.228017 -0.0802547
0.0385554 0.220606 -0.0817814
0.0380562 0.220105 -0.0818054
0.0380465 0.228086 -0.0812521
0.0380449 0.220639 -0.0822695
0.0380336 0.221172 -0.0827336
0.0380251 0.228155 -0.0822495
0.0385115 0.221741 -0.083707
0.0380122 0.221241 -0.083731
0.038005 0.227227 -0.083316
0.038015 0.227691 -0.0827827
0.0380009 0.221775 -0.0841951
0.0379896 0.222308 -0.0846592
0.0384889 0.222808 -0.0846352
0.037986 0.225301 -0.0844517
0.0379961 0.225765 -0.0839184
0.0384853 0.225801 -0.0844277
0.0379949 0.226763 -0.0838493
0.0384841 0.226799 -0.0843586
0.0379783 0.222841 -0.0851233
0.0379771 0.223839 -0.0850541
0.0379759 0.224837 -0.084985
0.0376791 0.224179 -0.0754992
0.0376778 0.225176 -0.0754301
0.0371721 0.221219 -0.0761948
0.037162 0.220755 -0.0767281
0.0376613 0.221255 -0.0767041
0.0371709 0.222217 -0.0761256
0.0371697 0.223214 -0.0760565
0.0371685 0.224212 -0.0759873
0.0371673 0.225209 -0.0759182
0.0371661 0.226207 -0.075849
0.0371548 0.22674 -0.0763131
0.0371407 0.220824 -0.0777254
0.0376327 0.22731 -0.0772865
0.0371334 0.22681 -0.0773105
0.0371306 0.22036 -0.0782587
0.0371205 0.219895 -0.078792
0.0376198 0.220396 -0.078768
0.0371221 0.227343 -0.0777746
0.0371108 0.227876 -0.0782387
0.0370991 0.219965 -0.0797894
0.0370895 0.227945 -0.0792361
0.0370778 0.220034 -0.0807867
0.0370681 0.228015 -0.0802335
0.0370564 0.220103 -0.0817841
0.0370467 0.228084 -0.0812308
0.0375343 0.220672 -0.0827575
0.037035 0.220172 -0.0827815
0.0370266 0.227155 -0.0822974
0.0370366 0.227619 -0.0817641
0.0375258 0.227655 -0.0822734
0.0370237 0.220705 -0.0832456
0.0370124 0.221239 -0.0837097
0.0370052 0.227224 -0.0832948
0.0374904 0.221808 -0.0846831
0.0369911 0.221308 -0.0847071
0.0369862 0.225298 -0.0844305
0.0369963 0.225762 -0.0838972
0.0369951 0.22676 -0.083828
0.0369798 0.221841 -0.0851712
0.0369786 0.222839 -0.0851021
0.0369774 0.223836 -0.0850329
0.0369762 0.224834 -0.0849637
0.0361723 0.221216 -0.0761736
0.0361623 0.220752 -0.0767068
0.0361711 0.222214 -0.0761044
0.0361699 0.223212 -0.0760352
0.0361687 0.224209 -0.0759661
0.0361675 0.225207 -0.0758969
0.0361562 0.22574 -0.076361
0.0366555 0.22624 -0.0763371
0.0361522 0.220288 -0.0772401
0.0361421 0.219824 -0.0777734
0.0366414 0.220324 -0.0777494
0.0361449 0.226274 -0.0768251
0.0361336 0.226807 -0.0772893
0.0361207 0.219893 -0.0787708
0.0361223 0.22734 -0.0777534
0.0361111 0.227874 -0.0782175
0.0361106 0.219429 -0.079304
0.0361006 0.218964 -0.0798373
0.0365998 0.219464 -0.0798133
0.0360897 0.227943 -0.0792149
0.0365785 0.219534 -0.0808107
0.0360792 0.219033 -0.0808347
0.0360683 0.228012 -0.0802122
0.0360679 0.219567 -0.0812988
0.0360566 0.2201 -0.0817629
0.0360482 0.227083 -0.0812788
0.0360582 0.227548 -0.0807455
0.0365474 0.227584 -0.0812548
0.0360352 0.220169 -0.0827603
0.0360268 0.227152 -0.0822762
0.0365132 0.220739 -0.0837337
0.0360139 0.220238 -0.0837576
0.0360066 0.226224 -0.0833427
0.0360167 0.226688 -0.0828094
0.0365059 0.226724 -0.0833187
0.0364918 0.220808 -0.0847311
0.0359925 0.220307 -0.084755
0.0359865 0.225296 -0.0844092
0.0359966 0.22576 -0.083876
0.0359812 0.220841 -0.0852191
0.03598 0.221838 -0.08515
0.0359788 0.222836 -0.0850808
0.0359776 0.223834 -0.0850117
0.0359764 0.224831 -0.0849425
0.0351738 0.220216 -0.0762215
0.0351637 0.219752 -0.0767548
0.035663 0.220252 -0.0767308
0.0351726 0.221214 -0.0761523
0.0351714 0.222211 -0.0760832
0.0351701 0.223209 -0.076014
0.0351689 0.224207 -0.0759448
0.0351677 0.225204 -0.0758757
0.0351564 0.225737 -0.0763398
0.0351536 0.219288 -0.077288
0.0351435 0.218823 -0.0778213
0.0356428 0.219324 -0.0777973
0.0351452 0.226271 -0.0768039
0.0351339 0.226804 -0.077268
0.0356214 0.219393 -0.0787947
0.0351222 0.218892 -0.0788187
0.0356118 0.227373 -0.0782414
0.0351125 0.226873 -0.0782654
0.0351008 0.218962 -0.0798161
0.0355904 0.227443 -0.0792388
0.0350911 0.226942 -0.0792628
0.0350794 0.219031 -0.0808134
0.035569 0.227512 -0.0802362
0.0350698 0.227012 -0.0802602
0.0355573 0.2196 -0.0817869
0.0350581 0.2191 -0.0818108
0.0350484 0.227081 -0.0812575
0.035536 0.219669 -0.0827842
0.0350367 0.219169 -0.0828082
0.035027 0.22715 -0.0822549
0.0350254 0.219702 -0.0832723
0.0350141 0.220236 -0.0837364
0.0350069 0.226221 -0.0833215
0.0350169 0.226686 -0.0827882
0.0349927 0.220305 -0.0847338
0.0349867 0.225293 -0.084388
0.0349968 0.225757 -0.0838547
0.0349815 0.220838 -0.0851979
0.0349702 0.221372 -0.085662
0.0354694 0.221872 -0.0856381
0.0354682 0.222869 -0.0855689
0.0349677 0.223367 -0.0855237
0.0349778 0.223831 -0.0849904
0.0349766 0.224829 -0.0849213
0.0349589 0.221905 -0.0861261
0.0349577 0.222902 -0.086057
0.034174 0.220213 -0.0762003
0.0341639 0.219749 -0.0767335
0.0341728 0.221211 -0.0761311
0.0341716 0.222209 -0.0760619
0.0341704 0.223206 -0.0759928
0.0341692 0.224204 -0.0759236
0.034168 0.225201 -0.0758545
0.0341567 0.225735 -0.0763186
0.0341538 0.219285 -0.0772668
0.0341438 0.218821 -0.0778001
0.0341454 0.226268 -0.0767827
0.0341341 0.226802 -0.0772468
0.0341337 0.218356 -0.0783333
0.0341236 0.217892 -0.0788666
0.0346229 0.218392 -0.0788426
0.0341127 0.226871 -0.0782442
0.0346015 0.218461 -0.07984
0.0341022 0.217961 -0.079864
0.0340914 0.22694 -0.0792415
0.0340909 0.218495 -0.0803281
0.0340797 0.219028 -0.0807922
0.03407 0.227009 -0.0802389
0.0340583 0.219097 -0.0817896
0.0340486 0.227078 -0.0812363
0.0340369 0.219166 -0.082787
0.0340273 0.227147 -0.0822337
0.0345148 0.219736 -0.0837604
0.0340155 0.219235 -0.0837843
0.0340071 0.226219 -0.0833002
0.0340172 0.226683 -0.082767
0.0344935 0.219805 -0.0847578
0.0339942 0.219305 -0.0847817
0.0339881 0.224293 -0.0844359
0.0339982 0.224757 -0.0839027
0.0344874 0.224793 -0.084412
0.033997 0.225754 -0.0838335
0.0339829 0.219838 -0.0852458
0.0339817 0.220835 -0.0851767
0.0339704 0.221369 -0.0856408
0.033968 0.223364 -0.0855025
0.0339781 0.223828 -0.0849692
0.0339591 0.221902 -0.0861049
0.0339579 0.2229 -0.0860357
0.0331742 0.220211 -0.076179
0.0331642 0.219746 -0.0767123
0.033173 0.221208 -0.0761099
0.0331718 0.222206 -0.0760407
0.0331706 0.223204 -0.0759715
0.0331694 0.224201 -0.0759024
0.0331682 0.225199 -0.0758332
0.0331569 0.225732 -0.0762973
0.0331553 0.218285 -0.0773147
0.0331452 0.21782 -0.077848
0.0336445 0.218321 -0.077824
0.0331541 0.219282 -0.0772456
0.0331456 0.226265 -0.0767614
0.0331343 0.226799 -0.0772256
0.0331238 0.21789 -0.0788454
0.033113 0.226868 -0.0782229
0.0331025 0.217959 -0.0798427
0.0330916 0.226937 -0.0792203
0.0335804 0.218528 -0.0808162
0.0330811 0.218028 -0.0808401
0.0330702 0.227006 -0.0802177
0.033559 0.218597 -0.0818135
0.0330597 0.218097 -0.0818375
0.0330488 0.227075 -0.0812151
0.0335376 0.218666 -0.0828109
0.0330384 0.218166 -0.0828349
0.0330275 0.227144 -0.0822124
0.0330271 0.218699 -0.083299
0.0330158 0.219233 -0.0837631
0.0330073 0.226216 -0.083279
0.0330174 0.22668 -0.0827457
0.0329944 0.219302 -0.0847605
0.0329884 0.22429 -0.0844147
0.0329984 0.224754 -0.0838814
0.0329972 0.225752 -0.0838123
0.0329831 0.219835 -0.0852246
0.0329718 0.220369 -0.0856887
0.0334711 0.220869 -0.0856647
0.0329682 0.223361 -0.0854812
0.0329783 0.223826 -0.084948
0.0329605 0.220902 -0.0861528
0.0329593 0.2219 -0.0860837
0.0329581 0.222897 -0.0860145
0.0321757 0.21921 -0.0762269
0.0321656 0.218746 -0.0767602
0.0326649 0.219246 -0.0767363
0.0321745 0.220208 -0.0761578
0.0321733 0.221206 -0.0760886
0.032172 0.222203 -0.0760195
0.0321708 0.223201 -0.0759503
0.0321696 0.224198 -0.0758811
0.0321684 0.225196 -0.075812
0.0321571 0.225729 -0.0762761
0.0321555 0.218282 -0.0772935
0.0321454 0.217818 -0.0778268
0.0321458 0.226263 -0.0767402
0.0321346 0.226796 -0.0772043
0.0321241 0.217887 -0.0788241
0.0321132 0.226865 -0.0782017
0.0321027 0.217956 -0.0798215
0.0320918 0.226934 -0.0791991
0.0320813 0.218025 -0.0808189
0.0320704 0.227004 -0.0801965
0.03206 0.218094 -0.0818163
0.0320491 0.227073 -0.0811938
0.0320386 0.218163 -0.0828137
0.0320289 0.226144 -0.0822604
0.032039 0.226608 -0.0817271
0.0325282 0.226644 -0.0822364
0.0325165 0.218733 -0.0837871
0.0320172 0.218232 -0.083811
0.0320088 0.225216 -0.0833269
0.0320188 0.22568 -0.0827936
0.032508 0.225716 -0.083303
0.0324951 0.218802 -0.0847844
0.0319958 0.218302 -0.0848084
0.0319886 0.224287 -0.0843935
0.0319987 0.224751 -0.0838602
0.0319846 0.218835 -0.0852725
0.0319733 0.219368 -0.0857366
0.0324725 0.219868 -0.0857127
0.0319684 0.223359 -0.08546
0.0319785 0.223823 -0.0849267
0.031962 0.219902 -0.0862007
0.0319608 0.220899 -0.0861316
0.0319596 0.221897 -0.0860624
0.0319584 0.222894 -0.0859933
0.0311759 0.219208 -0.0762057
0.0311658 0.218744 -0.076739
0.0311747 0.220205 -0.0761366
0.0311735 0.221203 -0.0760674
0.0311723 0.222201 -0.0759982
0.0311711 0.223198 -0.0759291
0.0311699 0.224196 -0.0758599
0.0311686 0.225193 -0.0757908
0.0311574 0.225727 -0.0762549
0.0311557 0.218279 -0.0772722
0.0311457 0.217815 -0.0778055
0.0311461 0.22626 -0.076719
0.0311348 0.226793 -0.0771831
0.0311243 0.217884 -0.0788029
0.0316127 0.227363 -0.0781565
0.0311235 0.227327 -0.0776472
0.0311122 0.22786 -0.0781113
0.0311029 0.217953 -0.0798003
0.0315913 0.227432 -0.0791539
0.0310908 0.227929 -0.0791087
0.0310928 0.217489 -0.0803335
0.0310828 0.217025 -0.0808668
0.031582 0.217525 -0.0808429
0.03157 0.227501 -0.0801513
0.0310695 0.227998 -0.0801061
0.0310715 0.217558 -0.0813309
0.0310602 0.218091 -0.081795
0.0310493 0.22707 -0.0811726
0.0310594 0.227534 -0.0806393
0.0310388 0.218161 -0.0827924
0.0310291 0.226141 -0.0822391
0.0310392 0.226606 -0.0817059
0.0310174 0.21823 -0.0837898
0.031009 0.225213 -0.0833057
0.0310191 0.225677 -0.0827724
0.0309961 0.218299 -0.0847872
0.0309888 0.224284 -0.0843722
0.0309989 0.224749 -0.0838389
0.0310198 0.189902 -0.0872569
0.0310097 0.189437 -0.0877902
0.031509 0.189938 -0.0877662
0.0315078 0.190935 -0.0876971
0.0310186 0.190899 -0.0871878
0.0315066 0.191933 -0.0876279
0.0310174 0.191897 -0.0871186
0.0315054 0.19293 -0.0875587
0.0310162 0.192894 -0.0870494
0.0310049 0.193428 -0.0875136
0.0309848 0.218832 -0.0852513
0.0309735 0.219366 -0.0857154
0.0309687 0.223356 -0.0854388
0.0309787 0.22382 -0.0849055
0.0309997 0.188973 -0.0883235
0.0309896 0.188509 -0.0888567
0.0314889 0.189009 -0.0888328
0.0314876 0.190007 -0.0887636
0.0314864 0.191004 -0.0886944
0.0314852 0.192002 -0.0886253
0.031484 0.193 -0.0885561
0.0309936 0.193961 -0.0879777
0.0314828 0.193997 -0.088487
0.0309823 0.194495 -0.0884418
0.0309622 0.219899 -0.0861795
0.030961 0.220897 -0.0861103
0.0309598 0.221894 -0.0860412
0.0309586 0.222892 -0.085972
0.0309783 0.189042 -0.0893208
0.030967 0.189576 -0.0897849
0.0314663 0.190076 -0.089761
0.0314651 0.191073 -0.0896918
0.0314639 0.192071 -0.0896227
0.0314627 0.193069 -0.0895535
0.0309722 0.19403 -0.088975
0.0309622 0.193566 -0.0895083
0.0309557 0.190109 -0.0902491
0.0309545 0.191107 -0.0901799
0.0309533 0.192104 -0.0901107
0.0309521 0.193102 -0.0900416
0.0301761 0.219205 -0.0761845
0.030166 0.218741 -0.0767177
0.0301749 0.220203 -0.0761153
0.0301737 0.2212 -0.0760462
0.0301725 0.222198 -0.075977
0.0301713 0.223195 -0.0759078
0.0301701 0.224193 -0.0758387
0.0301689 0.225191 -0.0757695
0.0306569 0.226224 -0.0762097
0.0301677 0.226188 -0.0757004
0.0301564 0.226722 -0.0761645
0.0301572 0.217279 -0.0773202
0.0301471 0.216815 -0.0778534
0.0306464 0.217315 -0.0778295
0.030156 0.218277 -0.077251
0.0306343 0.227291 -0.0771379
0.0301451 0.227255 -0.0766286
0.0301338 0.227788 -0.0770927
0.030625 0.217384 -0.0788269
0.0301257 0.216884 -0.0788508
0.0301124 0.227858 -0.0780901
0.0306036 0.217453 -0.0798242
0.0301044 0.216953 -0.0798482
0.0300911 0.227927 -0.0790874
0.030083 0.217022 -0.0808456
0.0300697 0.227996 -0.0800848
0.0305609 0.217591 -0.081819
0.0300616 0.217091 -0.081843
0.0300495 0.227067 -0.0811514
0.0300596 0.227532 -0.0806181
0.0305395 0.21766 -0.0828164
0.0300402 0.21716 -0.0828403
0.0300294 0.226139 -0.0822179
0.0300395 0.226603 -0.0816846
0.0300604 0.191756 -0.0851026
0.0300503 0.191292 -0.0856359
0.0305496 0.191792 -0.0856119
0.0305484 0.192789 -0.0855428
0.0300592 0.192754 -0.0850334
0.0300479 0.193287 -0.0854976
0.0305182 0.21773 -0.0838138
0.0300189 0.217229 -0.0838377
0.0300092 0.22521 -0.0832844
0.0300193 0.225675 -0.0827512
0.0300438 0.187835 -0.0863766
0.0300338 0.18737 -0.0869099
0.030533 0.187871 -0.0868859
0.0305318 0.188868 -0.0868168
0.0300426 0.188832 -0.0863075
0.0305306 0.189866 -0.0867476
0.0300414 0.18983 -0.0862383
0.0305294 0.190863 -0.0866785
0.0300402 0.190827 -0.0861691
0.0305282 0.191861 -0.0866093
0.030527 0.192859 -0.0865401
0.0300366 0.19382 -0.0859617
0.0305258 0.193856 -0.086471
0.0305246 0.194854 -0.0864018
0.0300354 0.194818 -0.0858925
0.0300241 0.195351 -0.0863566
0.0304968 0.217799 -0.0848111
0.0299975 0.217299 -0.0848351
0.0299891 0.224282 -0.084351
0.0299991 0.224746 -0.0838177
0.0300237 0.186906 -0.0874432
0.0300136 0.186442 -0.0879764
0.0305129 0.186942 -0.0879525
0.0305117 0.18794 -0.0878833
0.0305105 0.188937 -0.0878142
0.0305044 0.193925 -0.0874684
0.0305032 0.194923 -0.0873992
0.0300128 0.195885 -0.0868207
0.030502 0.195921 -0.08733
0.0300015 0.196418 -0.0872848
0.0299862 0.217832 -0.0852992
0.0299749 0.218365 -0.0857633
0.0304742 0.218865 -0.0857394
0.0299689 0.223353 -0.0854175
0.029979 0.223818 -0.0848843
0.0300023 0.186975 -0.0884405
0.029991 0.187509 -0.0889047
0.0304903 0.188009 -0.0888807
0.0304818 0.194992 -0.0883966
0.0304806 0.19599 -0.0883274
0.0299902 0.196951 -0.0877489
0.0304794 0.196987 -0.0882583
0.0299789 0.197485 -0.0882131
0.0299636 0.218899 -0.0862274
0.0299624 0.219896 -0.0861583
0.0299612 0.220894 -0.0860891
0.02996 0.221891 -0.08602
0.0299588 0.222889 -0.0859508
0.0299797 0.188042 -0.0893688
0.0299684 0.188575 -0.0898329
0.0304677 0.189076 -0.0898089
0.0304617 0.194064 -0.0894631
0.0304605 0.195061 -0.089394
0.0304593 0.196059 -0.0893248
0.0304581 0.197056 -0.0892556
0.0299576 0.197554 -0.0892104
0.0299571 0.189109 -0.090297
0.0299559 0.190106 -0.0902278
0.0299547 0.191104 -0.0901587
0.0299434 0.191637 -0.0906228
0.0304427 0.192137 -0.0905988
0.0304415 0.193135 -0.0905297
0.0304403 0.194133 -0.0904605
0.0304391 0.19513 -0.0903913
0.0304379 0.196128 -0.0903222
0.0304367 0.197125 -0.090253
0.0299362 0.197623 -0.0902078
0.0299322 0.192171 -0.0910869
0.0299309 0.193168 -0.0910177
0.0299297 0.194166 -0.0909486
0.0299285 0.195163 -0.0908794
0.0299273 0.196161 -0.0908102
0.0299261 0.197159 -0.0907411
0.0291776 0.218205 -0.0762324
0.0291675 0.217741 -0.0767657
0.0296668 0.218241 -0.0767417
0.0291764 0.219202 -0.0761632
0.0291751 0.2202 -0.0760941
0.0291739 0.221198 -0.0760249
0.0291727 0.222195 -0.0759558
0.0291715 0.223193 -0.0758866
0.0291703 0.22419 -0.0758174
0.0291691 0.225188 -0.0757483
0.0291679 0.226186 -0.0756791
0.0296559 0.227219 -0.0761193
0.0291667 0.227183 -0.07561
0.0291554 0.227717 -0.0760741
0.0291574 0.217276 -0.0772989
0.0291473 0.216812 -0.0778322
0.029134 0.227786 -0.0770715
0.029126 0.216881 -0.0788296
0.0291127 0.227855 -0.0780688
0.0291046 0.21695 -0.079827
0.0290913 0.227924 -0.0790662
0.0290945 0.216486 -0.0803602
0.0290844 0.216022 -0.0808935
0.0295837 0.216522 -0.0808695
0.0290699 0.227993 -0.0800636
0.0295623 0.216591 -0.0818669
0.0290631 0.216091 -0.0818909
0.029549 0.227565 -0.0811062
0.0290486 0.228062 -0.081061
0.0290868 0.187694 -0.0843606
0.0290767 0.18723 -0.0848939
0.029576 0.18773 -0.0848699
0.0295748 0.188727 -0.0848008
0.0290856 0.188691 -0.0842915
0.0295736 0.189725 -0.0847316
0.0290844 0.189689 -0.0842223
0.0295724 0.190722 -0.0846625
0.0290832 0.190687 -0.0841532
0.0295712 0.19172 -0.0845933
0.029082 0.191684 -0.084084
0.02957 0.192718 -0.0845241
0.0290808 0.192682 -0.0840148
0.0295688 0.193715 -0.084455
0.0290795 0.193679 -0.0839457
0.0290683 0.194213 -0.0844098
0.029541 0.21666 -0.0828643
0.0290417 0.21616 -0.0828883
0.0295289 0.226636 -0.0821727
0.0290284 0.227134 -0.0821275
0.0290385 0.227598 -0.0815942
0.0290666 0.186765 -0.0854272
0.0290566 0.186301 -0.0859604
0.0295558 0.186801 -0.0859365
0.0295546 0.187799 -0.0858673
0.0295534 0.188796 -0.0857982
0.0295522 0.189794 -0.085729
0.029551 0.190792 -0.0856598
0.0295474 0.193784 -0.0854524
0.029057 0.194746 -0.0848739
0.0295462 0.194782 -0.0853832
0.029545 0.19578 -0.085314
0.0290558 0.195744 -0.0848047
0.0295438 0.196777 -0.0852449
0.0290546 0.196741 -0.0847356
0.0290433 0.197275 -0.0851997
0.0295196 0.216729 -0.0838617
0.0290203 0.216229 -0.0838856
0.0290094 0.225208 -0.0832632
0.0290195 0.225672 -0.0827299
0.0290183 0.226669 -0.0826608
0.0290465 0.185837 -0.0864937
0.0290364 0.185373 -0.087027
0.0295357 0.185873 -0.087003
0.0295345 0.18687 -0.0869339
0.0295236 0.195849 -0.0863114
0.0295224 0.196846 -0.0862423
0.029032 0.197808 -0.0856638
0.0295212 0.197844 -0.0861731
0.0290207 0.198341 -0.0861279
0.029009 0.216763 -0.0843498
0.0289977 0.217296 -0.0848139
0.0289893 0.224279 -0.0843297
0.0289994 0.224743 -0.0837965
0.0295143 0.185942 -0.0880004
0.029015 0.185442 -0.0880244
0.029501 0.196915 -0.0872396
0.0294998 0.197913 -0.0871705
0.0290094 0.198875 -0.086592
0.0294986 0.198911 -0.0871013
0.0289981 0.199408 -0.0870561
0.0294757 0.217865 -0.0857873
0.0289764 0.217365 -0.0858112
0.0289703 0.222353 -0.0854654
0.0289804 0.222817 -0.0849322
0.0294696 0.222853 -0.0854415
0.0289792 0.223815 -0.084863
0.0290037 0.185975 -0.0884885
0.0289924 0.186508 -0.0889526
0.0294917 0.187009 -0.0889286
0.0294784 0.197982 -0.0881679
0.0294772 0.19898 -0.0880987
0.0289767 0.199477 -0.0880535
0.0289651 0.217898 -0.0862754
0.0289639 0.218896 -0.0862062
0.0289627 0.219894 -0.086137
0.0289615 0.220891 -0.0860679
0.0289602 0.221889 -0.0859987
0.0289812 0.187042 -0.0894167
0.02898 0.188039 -0.0893475
0.0289687 0.188573 -0.0898116
0.0294571 0.198051 -0.0891652
0.0294559 0.199049 -0.0890961
0.0289554 0.199546 -0.0890509
0.0289574 0.189106 -0.0902757
0.0289562 0.190104 -0.0902066
0.028955 0.191101 -0.0901374
0.0289437 0.191635 -0.0906015
0.0294357 0.19812 -0.0901626
0.0294345 0.199118 -0.0900935
0.028934 0.199615 -0.0900483
0.0289324 0.192168 -0.0910656
0.0289312 0.193166 -0.0909965
0.02893 0.194163 -0.0909273
0.0289288 0.195161 -0.0908582
0.0289175 0.195694 -0.0913223
0.0294168 0.196194 -0.0912983
0.0294155 0.197192 -0.0912292
0.0294143 0.19819 -0.09116
0.0294131 0.199187 -0.0910908
0.0289126 0.199685 -0.0910456
0.0289062 0.196228 -0.0917864
0.028905 0.197225 -0.0917172
0.0289038 0.198223 -0.0916481
0.0289026 0.19922 -0.0915789
0.028198 0.219131 -0.0751446
0.0281879 0.218666 -0.0756779
0.0286872 0.219166 -0.0756539
0.0286859 0.220164 -0.0755848
0.0281967 0.220128 -0.0750755
0.0286847 0.221162 -0.0755156
0.0281955 0.221126 -0.0750063
0.0286835 0.222159 -0.0754465
0.0281943 0.222123 -0.0749371
0.0286823 0.223157 -0.0753773
0.0281931 0.223121 -0.074868
0.0286811 0.224155 -0.0753081
0.0281919 0.224119 -0.0747988
0.0286799 0.225152 -0.075239
0.0281907 0.225116 -0.0747297
0.0286787 0.22615 -0.0751698
0.0281895 0.226114 -0.0746605
0.0281782 0.226647 -0.0751246
0.028179 0.217204 -0.0762803
0.0281689 0.21674 -0.0768136
0.0286682 0.21724 -0.0767896
0.0281778 0.218202 -0.0762112
0.0281669 0.227181 -0.0755887
0.0281556 0.227714 -0.0760528
0.0281588 0.216276 -0.0773469
0.0281488 0.215812 -0.0778801
0.028648 0.216312 -0.0778562
0.0286335 0.228283 -0.0770263
0.0281443 0.228247 -0.0765169
0.0281331 0.228781 -0.0769811
0.0286267 0.216381 -0.0788536
0.0281274 0.215881 -0.0788775
0.0286122 0.228352 -0.0780236
0.0281117 0.22885 -0.0779784
0.0286053 0.21645 -0.0798509
0.028106 0.21595 -0.0798749
0.0285908 0.228421 -0.079021
0.0280903 0.228919 -0.0789758
0.0281286 0.18855 -0.0822755
0.0281185 0.188086 -0.0828087
0.0286178 0.188586 -0.0827848
0.0286165 0.189584 -0.0827156
0.0281273 0.189548 -0.0822063
0.0286153 0.190582 -0.0826465
0.0281261 0.190546 -0.0821372
0.0286141 0.191579 -0.0825773
0.0281249 0.191543 -0.082068
0.0286129 0.192577 -0.0825081
0.0281237 0.192541 -0.0819988
0.0286117 0.193574 -0.082439
0.0281225 0.193538 -0.0819297
0.0281112 0.194072 -0.0823938
0.0280847 0.216019 -0.0808723
0.0285694 0.228491 -0.0800184
0.0280689 0.228988 -0.0799732
0.0281084 0.187622 -0.083342
0.0280983 0.187158 -0.0838753
0.0285976 0.187658 -0.0838513
0.0285964 0.188655 -0.0837822
0.0285952 0.189653 -0.083713
0.028594 0.190651 -0.0836438
0.0285928 0.191648 -0.0835747
0.0285916 0.192646 -0.0835055
0.0285903 0.193643 -0.0834364
0.0280999 0.194605 -0.0828579
0.0285891 0.194641 -0.0833672
0.0285879 0.195639 -0.083298
0.0280987 0.195603 -0.0827887
0.0285867 0.196636 -0.0832289
0.0280975 0.1966 -0.0827196
0.0280862 0.197134 -0.0831837
0.0280633 0.216088 -0.0818697
0.0280488 0.228059 -0.0810397
0.0280589 0.228524 -0.0805065
0.0280894 0.185696 -0.0844777
0.0280794 0.185232 -0.085011
0.0285786 0.185732 -0.084987
0.0285774 0.186729 -0.0849179
0.0280882 0.186693 -0.0844086
0.0285678 0.19471 -0.0843646
0.0285666 0.195708 -0.0842954
0.0285654 0.196705 -0.0842263
0.0280749 0.197667 -0.0836478
0.0285641 0.197703 -0.0841571
0.0280637 0.1982 -0.0841119
0.0280419 0.216157 -0.082867
0.0285279 0.227631 -0.0820823
0.0280274 0.228129 -0.0820371
0.0280705 0.18377 -0.0856134
0.0280604 0.183306 -0.0861467
0.0285597 0.183806 -0.0861227
0.0285585 0.184803 -0.0860536
0.0280693 0.184767 -0.0855443
0.0285573 0.185801 -0.0859844
0.0285428 0.197772 -0.0851545
0.0280524 0.198734 -0.084576
0.0285416 0.19877 -0.0850853
0.0280411 0.199267 -0.0850401
0.0280205 0.216226 -0.0838644