<VTKFile type="UnstructuredGrid" version="0.1" byte_order="BigEndian">
  <UnstructuredGrid>
    <Piece NumberOfPoints="18954" NumberOfCells="37908">
      <PointData>
        <DataArray type="Float64" Name="position" NumberOfComponents="3" format="ascii">
0.0442223 0.218958 -0.0829186
0.0442097 0.218429 -0.0833877
0.0447108 0.218926 -0.0834289
0.0447134 0.219925 -0.0834887
0.0442249 0.219956 -0.0829784
0.0447159 0.220923 -0.0835484
0.0442274 0.220955 -0.0830382
0.0442173 0.221424 -0.0835671
0.0446881 0.218867 -0.0844268
0.044187 0.21837 -0.0843857
0.0446906 0.219865 -0.0844866
0.0446932 0.220863 -0.0845464
0.0442072 0.221893 -0.0840959
0.0446957 0.221861 -0.0846062
0.0441971 0.222362 -0.0846248
0.0446654 0.218807 -0.0854248
0.0441642 0.21831 -0.0853837
0.0446679 0.219805 -0.0854846
0.0446705 0.220803 -0.0855444
0.044673 0.221802 -0.0856041
0.0441744 0.222303 -0.0856227
0.0446427 0.218747 -0.0864228
0.0441415 0.21825 -0.0863816
0.0446452 0.219746 -0.0864825
0.0446477 0.220744 -0.0865423
0.0446503 0.221742 -0.0866021
0.0441517 0.222243 -0.0866207
0.0441314 0.218719 -0.0869105
0.0441213 0.219189 -0.0874393
0.0446225 0.219686 -0.0874805
0.044625 0.220684 -0.0875403
0.044139 0.221714 -0.0870898
0.0441264 0.221185 -0.0875589
0.0441112 0.219658 -0.0879682
0.0441138 0.220656 -0.088028
0.0432655 0.218083 -0.0808404
0.0432529 0.217554 -0.0813095
0.043754 0.218052 -0.0813507
0.0437565 0.21905 -0.0814104
0.043268 0.219082 -0.0809002
0.0437591 0.220048 -0.0814702
0.0432706 0.22008 -0.08096
0.0437616 0.221046 -0.08153
0.0432731 0.221078 -0.0810197
0.043263 0.221547 -0.0815486
0.0437313 0.217992 -0.0823486
0.0432301 0.217495 -0.0823075
0.0437338 0.21899 -0.0824084
0.0437364 0.219988 -0.0824682
0.0437389 0.220986 -0.0825279
0.0432529 0.222016 -0.0820775
0.0437414 0.221985 -0.0825877
0.0432428 0.222486 -0.0826063
0.0437086 0.217932 -0.0833466
0.0432074 0.217435 -0.0833054
0.0437187 0.221925 -0.0835857
0.0432201 0.222426 -0.0836043
0.0436858 0.217872 -0.0843445
0.0431847 0.217375 -0.0843034
0.0436985 0.222863 -0.0846434
0.04321 0.222895 -0.0841332
0.0431999 0.223365 -0.084662
0.0436631 0.217813 -0.0853425
0.043162 0.217316 -0.0853013
0.0436758 0.222804 -0.0856414
0.0431772 0.223305 -0.08566
0.0436404 0.217753 -0.0863405
0.0431392 0.217256 -0.0862993
0.0436531 0.222744 -0.0866393
0.0431545 0.223245 -0.0866579
0.0436177 0.217693 -0.0873384
0.0431165 0.217196 -0.0872973
0.0436202 0.218692 -0.0873982
0.0436278 0.221686 -0.0875775
0.0431292 0.222187 -0.0875961
0.0431419 0.222716 -0.087127
0.0431064 0.217665 -0.0878261
0.043109 0.218664 -0.0878859
0.0431115 0.219662 -0.0879457
0.043114 0.22066 -0.0880054
0.0431166 0.221658 -0.0880652
0.0423137 0.219205 -0.0788818
0.0423011 0.218676 -0.0793508
0.0428023 0.219173 -0.079392
0.0428048 0.220171 -0.0794518
0.0423163 0.220203 -0.0789415
0.0428073 0.221169 -0.0795115
0.0423188 0.221201 -0.0790013
0.0423087 0.22167 -0.0795302
0.0422885 0.218147 -0.0798199
0.0422758 0.217618 -0.080289
0.042777 0.218115 -0.0803302
0.0427795 0.219113 -0.08039
0.0427821 0.220112 -0.0804497
0.0427846 0.22111 -0.0805095
0.0422986 0.22214 -0.080059
0.0427871 0.222108 -0.0805693
0.0422885 0.222609 -0.0805879
0.0422632 0.217089 -0.0807581
0.0422506 0.21656 -0.0812272
0.0427517 0.217057 -0.0812684
0.0427644 0.222048 -0.0815672
0.0422785 0.223078 -0.0811168
0.042767 0.223046 -0.081627
0.0422684 0.223548 -0.0816456
0.042729 0.216998 -0.0822663
0.0422279 0.2165 -0.0822252
0.0427442 0.222987 -0.082625
0.0422456 0.223488 -0.0826436
0.0427063 0.216938 -0.0832643
0.0422051 0.216441 -0.0832231
0.0427215 0.222927 -0.0836229
0.0422229 0.223428 -0.0836415
0.0426836 0.216878 -0.0842622
0.0421824 0.216381 -0.0842211
0.0422002 0.223368 -0.0846395
0.0426608 0.216818 -0.0852602
0.0421597 0.216321 -0.085219
0.0421775 0.223309 -0.0856375
0.0426381 0.216759 -0.0862582
0.042137 0.216262 -0.086217
0.0421522 0.222251 -0.0865756
0.0421648 0.22278 -0.0861065
0.0426533 0.222748 -0.0866168
0.0426154 0.216699 -0.0872561
0.0421142 0.216202 -0.087215
0.0421295 0.222191 -0.0875736
0.0421042 0.216671 -0.0877438
0.0421067 0.217669 -0.0878036
0.0421092 0.218668 -0.0878634
0.0421118 0.219666 -0.0879231
0.0421143 0.220664 -0.0879829
0.0421168 0.221662 -0.0880427
0.0413115 0.218211 -0.0787994
0.0412988 0.217682 -0.0792685
0.0418 0.218179 -0.0793097
0.041314 0.219209 -0.0788592
0.0413165 0.220207 -0.078919
0.0413065 0.220676 -0.0794479
0.0418076 0.221173 -0.079489
0.0412862 0.217153 -0.0797376
0.0412736 0.216624 -0.0802067
0.0417747 0.217121 -0.0802479
0.0412964 0.221145 -0.0799767
0.0412863 0.221615 -0.0805056
0.0417874 0.222112 -0.0805467
0.0412508 0.216564 -0.0812047
0.0412762 0.222084 -0.0810345
0.0412661 0.222553 -0.0815633
0.0417672 0.22305 -0.0816045
0.0412382 0.216035 -0.0816738
0.0412256 0.215506 -0.0821429
0.0417267 0.216003 -0.082184
0.041256 0.223022 -0.0820922
0.0412459 0.223492 -0.0826211
0.041704 0.215943 -0.083182
0.0412029 0.215446 -0.0831408
0.0412232 0.223432 -0.083619
0.0416813 0.215884 -0.0841799
0.0411801 0.215387 -0.0841388
0.0412005 0.223372 -0.084617
0.04117 0.215856 -0.0846676
0.04116 0.216325 -0.0851965
0.0411752 0.222314 -0.0855552
0.0411878 0.222843 -0.0850861
0.0416763 0.222812 -0.0855963
0.0411372 0.216265 -0.0861945
0.0411525 0.222255 -0.0865531
0.0411145 0.216206 -0.0871924
0.0411272 0.221197 -0.0874913
0.0411398 0.221726 -0.0870222
0.0416283 0.221694 -0.0875324
0.0411044 0.216675 -0.0877213
0.041107 0.217673 -0.0877811
0.0411095 0.218671 -0.0878408
0.041112 0.21967 -0.0879006
0.0411146 0.220668 -0.0879604
0.0403092 0.217216 -0.0787171
0.0402966 0.216687 -0.0791862
0.0407977 0.217184 -0.0792274
0.0403117 0.218214 -0.0787769
0.0403143 0.219213 -0.0788367
0.0403168 0.220211 -0.0788965
0.0403067 0.22068 -0.0794253
0.0402839 0.216158 -0.0796553
0.0402713 0.215629 -0.0801244
0.0407724 0.216126 -0.0801656
0.0402966 0.221149 -0.0799542
0.0402865 0.221619 -0.0804831
0.0407497 0.216067 -0.0811635
0.0402486 0.21557 -0.0811224
0.0407649 0.222056 -0.0815222
0.0402638 0.221559 -0.081481
0.0402359 0.215041 -0.0815915
0.0402233 0.214512 -0.0820606
0.0407244 0.215009 -0.0821017
0.0402537 0.222028 -0.0820099
0.0402436 0.222497 -0.0825387
0.0407448 0.222995 -0.0825799
0.0407017 0.214949 -0.0830997
0.0402006 0.214452 -0.0830585
0.040722 0.222935 -0.0835779
0.0402209 0.222438 -0.0835367
0.040679 0.214889 -0.0840976
0.0401779 0.214392 -0.0840565
0.0406993 0.222875 -0.0845758
0.0401982 0.222378 -0.0845347
0.0401678 0.214862 -0.0845853
0.0401577 0.215331 -0.0851142
0.0406588 0.215828 -0.0851554
0.0401729 0.22132 -0.0854728
0.0401855 0.221849 -0.0850038
0.0406741 0.221817 -0.085514
0.0406361 0.215768 -0.0861533
0.040135 0.215271 -0.0861122
0.0401476 0.220262 -0.086411
0.0401603 0.220791 -0.0859419
0.0406488 0.220759 -0.0864522
0.0406513 0.221758 -0.086512
0.0401249 0.21574 -0.086641
0.0401148 0.21621 -0.0871699
0.0406261 0.2207 -0.0874501
0.0401249 0.220202 -0.087409
0.0401047 0.216679 -0.0876988
0.0401072 0.217677 -0.0877585
0.0401098 0.218675 -0.0878183
0.0401123 0.219674 -0.0878781
0.0393347 0.218278 -0.0777564
0.0393221 0.217749 -0.0782255
0.0398232 0.218246 -0.0782667
0.0398258 0.219244 -0.0783264
0.0393373 0.219276 -0.0778162
0.0393272 0.219745 -0.0783451
0.0393069 0.216222 -0.0786348
0.0392943 0.215693 -0.0791039
0.0397954 0.21619 -0.0791451
0.0393094 0.21722 -0.0786946
0.0393171 0.220215 -0.0788739
0.039307 0.220684 -0.0794028
0.0392716 0.215633 -0.0801019
0.0392969 0.221153 -0.0799317
0.0392868 0.221622 -0.0804605
0.0392589 0.215104 -0.080571
0.0392463 0.214575 -0.0810401
0.0397474 0.215072 -0.0810812
0.0392641 0.221563 -0.0814585
0.0392236 0.214516 -0.082038
0.0397425 0.222 -0.0824976
0.0392413 0.221503 -0.0824564
0.0392008 0.214456 -0.083036
0.0397198 0.221941 -0.0834956
0.0392186 0.221443 -0.0834544
0.0391781 0.214396 -0.0840339
0.039697 0.221881 -0.0844935
0.0391959 0.221384 -0.0844524
0.0396565 0.214834 -0.0850731
0.0391554 0.214337 -0.0850319
0.0391732 0.221324 -0.0854503
0.0391453 0.214806 -0.0855608
0.0391352 0.215275 -0.0860896
0.0391479 0.220266 -0.0863885
0.0391605 0.220795 -0.0859194
0.0391251 0.215744 -0.0866185
0.039115 0.216214 -0.0871474
0.0391252 0.220206 -0.0873865
0.0391049 0.216683 -0.0876762
0.0391075 0.217681 -0.087736
0.03911 0.218679 -0.0877958
0.0391126 0.219677 -0.0878556
0.038335 0.218282 -0.0777339
0.0383223 0.217753 -0.078203
0.0383375 0.21928 -0.0777937
0.0383274 0.219749 -0.0783225
0.0383072 0.216226 -0.0786123
0.0382945 0.215697 -0.0790814
0.0383097 0.217224 -0.0786721
0.0383173 0.220219 -0.0788514
0.0383072 0.220688 -0.0793803
0.0382819 0.215168 -0.0795505
0.0382693 0.214639 -0.0800196
0.0387704 0.215136 -0.0800607
0.0382971 0.221157 -0.0799091
0.0382871 0.221626 -0.080438
0.0382466 0.214579 -0.0810175
0.0382643 0.221567 -0.081436
0.0382339 0.21405 -0.0814866
0.0382213 0.213521 -0.0819557
0.0387224 0.214018 -0.0819969
0.0382416 0.221507 -0.0824339
0.0386997 0.213959 -0.0829948
0.0381986 0.213462 -0.0829537
0.0382189 0.221447 -0.0834319
0.038677 0.213899 -0.0839928
0.0381758 0.213402 -0.0839516
0.0381962 0.221388 -0.0844298
0.0381658 0.213871 -0.0844805
0.0381557 0.21434 -0.0850094
0.0381734 0.221328 -0.0854278
0.0386341 0.214778 -0.0860485
0.0381329 0.214281 -0.0860073
0.0381482 0.22027 -0.086366
0.0381608 0.220799 -0.0858969
0.0381228 0.21475 -0.0865362
0.0381128 0.215219 -0.0870651
0.0386139 0.215716 -0.0871062
0.0381204 0.218214 -0.0872444
0.038133 0.218743 -0.0867753
0.0386215 0.218711 -0.0872855
0.0381355 0.219741 -0.0868351
0.038624 0.219709 -0.0873453
0.0381027 0.215688 -0.0875939
0.0381052 0.216687 -0.0876537
0.0381077 0.217685 -0.0877135
0.0378237 0.218254 -0.0782216
0.0378263 0.219252 -0.0782814
0.0373049 0.215231 -0.07853
0.0372923 0.214702 -0.0789991
0.0377934 0.2152 -0.0790403
0.0373074 0.21623 -0.0785898
0.03731 0.217228 -0.0786496
0.0373125 0.218226 -0.0787093
0.0373151 0.219224 -0.0787691
0.0373176 0.220222 -0.0788289
0.0373075 0.220692 -0.0793577
0.0372695 0.214643 -0.0799971
0.0377859 0.221129 -0.0803968
0.0372848 0.220632 -0.0803557
0.0372569 0.214114 -0.0804661
0.0372443 0.213585 -0.0809352
0.0377454 0.214082 -0.0809764
0.0372747 0.221101 -0.0808846
0.0372646 0.221571 -0.0814134
0.0372216 0.213525 -0.0819332
0.0372419 0.221511 -0.0824114
0.0371988 0.213465 -0.0829312
0.0372191 0.221451 -0.0834093
0.0371761 0.213406 -0.0839291
0.0371964 0.221391 -0.0844073
0.0376545 0.213843 -0.0849682
0.0371534 0.213346 -0.0849271
0.0371712 0.220334 -0.0853455
0.0371838 0.220862 -0.0848764
0.0376723 0.220831 -0.0853866
0.0371433 0.213815 -0.0854559
0.0371332 0.214285 -0.0859848
0.0371484 0.220274 -0.0863434
0.0376116 0.214722 -0.0870239
0.0371105 0.214225 -0.0869828
0.0371206 0.218218 -0.0872219
0.0371333 0.218747 -0.0867528
0.0371358 0.219745 -0.0868125
0.0371004 0.214694 -0.0875116
0.0371029 0.215692 -0.0875714
0.0371055 0.216691 -0.0876312
0.037108 0.217689 -0.0876909
0.0363052 0.215235 -0.0785075
0.0362925 0.214706 -0.0789766
0.0363077 0.216234 -0.0785672
0.0363102 0.217232 -0.078627
0.0363128 0.21823 -0.0786868
0.0363153 0.219228 -0.0787466
0.0363052 0.219697 -0.0792754
0.0368064 0.220195 -0.0793166
0.0362799 0.214177 -0.0794457
0.0362673 0.213648 -0.0799148
0.0367684 0.214146 -0.0799559
0.0362951 0.220167 -0.0798043
0.036285 0.220636 -0.0803332
0.0362445 0.213589 -0.0809127
0.0362749 0.221105 -0.080862
0.0362649 0.221574 -0.0813909
0.0362319 0.21306 -0.0813818
0.0362193 0.212531 -0.0818509
0.0367204 0.213028 -0.081892
0.0362421 0.221515 -0.0823889
0.0366977 0.212968 -0.08289
0.0361966 0.212471 -0.0828489
0.0362194 0.221455 -0.0833868
0.0361865 0.21294 -0.0833777
0.0361764 0.21341 -0.0839066
0.0361941 0.220397 -0.084325
0.0362068 0.220926 -0.0838559
0.0366953 0.220894 -0.0843661
0.0361536 0.21335 -0.0849045
0.0361714 0.220337 -0.085323
0.0366321 0.213787 -0.0859437
0.0361309 0.21329 -0.0859025
0.0361462 0.21928 -0.0862611
0.0361588 0.219808 -0.085792
0.0366473 0.219777 -0.0863023
0.0366093 0.213728 -0.0869416
0.0361082 0.213231 -0.0869005
0.0361209 0.218222 -0.0871993
0.0361335 0.218751 -0.0867302
0.0360981 0.2137 -0.0874293
0.0361006 0.214698 -0.0874891
0.0361032 0.215696 -0.0875489
0.0361057 0.216694 -0.0876086
0.0361083 0.217693 -0.0876684
0.0353029 0.214241 -0.0784252
0.0352902 0.213712 -0.0788943
0.0357914 0.214209 -0.0789354
0.0353054 0.215239 -0.0784849
0.035308 0.216237 -0.0785447
0.0353105 0.217236 -0.0786045
0.035313 0.218234 -0.0786643
0.0353156 0.219232 -0.078724
0.0353055 0.219701 -0.0792529
0.0352776 0.213183 -0.0793634
0.035265 0.212654 -0.0798324
0.0357661 0.213151 -0.0798736
0.0352954 0.220171 -0.0797818
0.0352853 0.22064 -0.0803106
0.0357434 0.213092 -0.0808716
0.0352423 0.212594 -0.0808304
0.0357637 0.221077 -0.0813497
0.0352626 0.22058 -0.0813086
0.0352195 0.212535 -0.0818284
0.035741 0.221018 -0.0823477
0.0352398 0.22052 -0.0823065
0.0351968 0.212475 -0.0828263
0.0357183 0.220958 -0.0833457
0.0352171 0.220461 -0.0833045
0.0356752 0.212913 -0.0838654
0.0351741 0.212415 -0.0838243
0.0351944 0.220401 -0.0843025
0.0356525 0.212853 -0.0848634
0.0351514 0.212356 -0.0848222
0.0351717 0.220341 -0.0853004
0.0351413 0.212825 -0.0853511
0.0351312 0.213294 -0.08588
0.0351464 0.219283 -0.0862386
0.035159 0.219812 -0.0857695
0.0351085 0.213234 -0.0868779
0.0351212 0.218226 -0.0871768
0.0351338 0.218754 -0.0867077
0.0350984 0.213704 -0.0874068
0.0350883 0.214173 -0.0879357
0.0355894 0.21467 -0.0879768
0.035592 0.215668 -0.0880366
0.0350934 0.216169 -0.0880552
0.035106 0.216698 -0.0875861
0.0351085 0.217697 -0.0876459
0.0350782 0.214642 -0.0884645
0.0350807 0.21564 -0.0885243
0.0343031 0.214245 -0.0784026
0.0342905 0.213716 -0.0788717
0.0343057 0.215243 -0.0784624
0.0343082 0.216241 -0.0785222
0.0343108 0.21724 -0.078582
0.0343133 0.218238 -0.0786417
0.0343158 0.219236 -0.0787015
0.0343057 0.219705 -0.0792304
0.0342779 0.213187 -0.0793408
0.0342652 0.212658 -0.0798099
0.0342957 0.220174 -0.0797592
0.0342856 0.220644 -0.0802881
0.0342526 0.212129 -0.080279
0.03424 0.2116 -0.0807481
0.0347411 0.212097 -0.0807893
0.0342628 0.220584 -0.0812861
0.0347184 0.212038 -0.0817872
0.0342173 0.21154 -0.0817461
0.0342401 0.220524 -0.082284
0.0342072 0.21201 -0.0822749
0.0341971 0.212479 -0.0828038
0.0342174 0.220465 -0.083282
0.0341744 0.212419 -0.0838017
0.0341947 0.220405 -0.0842799
0.0341516 0.21236 -0.0847997
0.0341719 0.220345 -0.0852779
0.03463 0.212797 -0.0858388
0.0341289 0.2123 -0.0857977
0.0341467 0.219287 -0.0862161
0.0341593 0.219816 -0.085747
0.0346073 0.212737 -0.0868368
0.0341062 0.21224 -0.0867956
0.0341189 0.217231 -0.0870945
0.0341315 0.21776 -0.0866254
0.03462 0.217728 -0.0871356
0.034134 0.218758 -0.0866852
0.0340961 0.212709 -0.0873245
0.0340986 0.213708 -0.0873843
0.0340885 0.214177 -0.0879131
0.0340936 0.216173 -0.0880327
0.0341062 0.216702 -0.0875636
0.0340784 0.214646 -0.088442
0.034081 0.215644 -0.0885018
0.0333034 0.214249 -0.0783801
0.0332908 0.21372 -0.0788492
0.0333059 0.215247 -0.0784399
0.0333085 0.216245 -0.0784997
0.033311 0.217243 -0.0785594
0.0333136 0.218242 -0.0786192
0.0333161 0.21924 -0.078679
0.033306 0.219709 -0.0792078
0.0332756 0.212193 -0.0792585
0.033263 0.211664 -0.0797276
0.0337641 0.212161 -0.0797688
0.0332781 0.213191 -0.0793183
0.0332959 0.220178 -0.0797367
0.0332858 0.220648 -0.0802656
0.0332402 0.211604 -0.0807256
0.0332631 0.220588 -0.0812635
0.0332175 0.211544 -0.0817235
0.0332404 0.220528 -0.0822615
0.0336959 0.211982 -0.0827626
0.0331948 0.211485 -0.0827215
0.0332176 0.220469 -0.0832594
0.0336732 0.211922 -0.0837606
0.0331721 0.211425 -0.0837194
0.0331949 0.220409 -0.0842574
0.0336505 0.211862 -0.0847586
0.0331494 0.211365 -0.0847174
0.0331722 0.220349 -0.0852554
0.0331393 0.211834 -0.0852463
0.0331292 0.212304 -0.0857751
0.0331469 0.219291 -0.0861935
0.0331596 0.21982 -0.0857244
0.0331064 0.212244 -0.0867731
0.0331191 0.217235 -0.087072
0.0331318 0.217764 -0.0866029
0.0331343 0.218762 -0.0866626
0.0330964 0.212713 -0.087302
0.0330863 0.213183 -0.0878308
0.0335874 0.21368 -0.087872
0.0330939 0.216177 -0.0880101
0.0331065 0.216706 -0.087541
0.0330762 0.213652 -0.0883597
0.0330787 0.21465 -0.0884195
0.0330812 0.215648 -0.0884792
0.0323011 0.213254 -0.0782978
0.0322885 0.212726 -0.0787669
0.0327896 0.213223 -0.078808
0.0323037 0.214253 -0.0783576
0.0323062 0.215251 -0.0784174
0.0323087 0.216249 -0.0784771
0.0323113 0.217247 -0.0785369
0.0323138 0.218246 -0.0785967
0.0323164 0.219244 -0.0786564
0.0323063 0.219713 -0.0791853
0.0322759 0.212197 -0.079236
0.0322632 0.211668 -0.0797051
0.0322962 0.220182 -0.0797142
0.0322861 0.220652 -0.080243
0.0322405 0.211608 -0.080703
0.0322634 0.220592 -0.081241
0.0322178 0.211548 -0.081701
0.0322406 0.220532 -0.082239
0.0321951 0.211489 -0.082699
0.0322179 0.220472 -0.0832369
0.0321723 0.211429 -0.0836969
0.0321952 0.220413 -0.0842349
0.0321496 0.211369 -0.0846949
0.0321699 0.219355 -0.0851731
0.0321826 0.219884 -0.084704
0.0326711 0.219852 -0.0852142
0.032628 0.211807 -0.085734
0.0321269 0.211309 -0.0856928
0.0321447 0.218297 -0.0861112
0.0321573 0.218826 -0.0856421
0.0326458 0.218794 -0.0861524
0.0326053 0.211747 -0.0867319
0.0321042 0.21125 -0.0866908
0.0321194 0.217239 -0.0870494
0.032132 0.217768 -0.0865803
0.0320941 0.211719 -0.0872197
0.032084 0.212188 -0.0877485
0.0325851 0.212685 -0.0877897
0.0320941 0.216181 -0.0879876
0.0321068 0.21671 -0.0875185
0.0320739 0.212657 -0.0882774
0.0320764 0.213656 -0.0883372
0.032079 0.214654 -0.0883969
0.0320815 0.215652 -0.0884567
0.0313014 0.213258 -0.0782753
0.0312888 0.212729 -0.0787444
0.0313039 0.214257 -0.078335
0.0313065 0.215255 -0.0783948
0.031309 0.216253 -0.0784546
0.0313115 0.217251 -0.0785144
0.0313141 0.218249 -0.0785741
0.0313166 0.219248 -0.0786339
0.0313065 0.219717 -0.0791628
0.0312761 0.2122 -0.0792135
0.0312635 0.211672 -0.0796826
0.0312964 0.220186 -0.0796916
0.0312863 0.220655 -0.0802205
0.0312408 0.211612 -0.0806805
0.0317648 0.221093 -0.0812596
0.0312762 0.221125 -0.0807494
0.0312662 0.221594 -0.0812782
0.031218 0.211552 -0.0816785
0.031742 0.221033 -0.0822576
0.0312434 0.221534 -0.0822762
0.0312054 0.211023 -0.0821476
0.0311928 0.210494 -0.0826167
0.0316939 0.210991 -0.0826578
0.0317193 0.220973 -0.0832555
0.0312207 0.221475 -0.0832742
0.0311827 0.210963 -0.0831455
0.0311726 0.211433 -0.0836744
0.0311954 0.220417 -0.0842123
0.0312081 0.220946 -0.0837432
0.0311499 0.211373 -0.0846723
0.0311702 0.219359 -0.0851505
0.0311828 0.219888 -0.0846814
0.0311272 0.211313 -0.0856703
0.0311449 0.218301 -0.0860887
0.0311576 0.21883 -0.0856196
0.0311044 0.211254 -0.0866683
0.0311197 0.217243 -0.0870269
0.0311323 0.217772 -0.0865578
0.0310207 0.182775 -0.0854637
0.0310081 0.182246 -0.0859328
0.0315092 0.182743 -0.085974
0.0315118 0.183741 -0.0860337
0.0310232 0.183773 -0.0855235
0.0315143 0.184739 -0.0860935
0.0310258 0.184771 -0.0855833
0.0315168 0.185738 -0.0861533
0.0310283 0.185769 -0.085643
0.0310182 0.186239 -0.0861719
0.0310943 0.211723 -0.0871971
0.0310842 0.212192 -0.087726
0.0310944 0.216185 -0.0879651
0.031107 0.216714 -0.087496
0.0309954 0.181717 -0.0864019
0.0309828 0.181188 -0.086871
0.0314839 0.181685 -0.0869121
0.0314865 0.182683 -0.0869719
0.031489 0.183682 -0.0870317
0.0314916 0.18468 -0.0870915
0.0314941 0.185678 -0.0871512
0.0310081 0.186708 -0.0867008
0.0314966 0.186676 -0.087211
0.030998 0.187177 -0.0872296
0.0310742 0.212661 -0.0882549
0.0310767 0.21366 -0.0883146
0.0310792 0.214658 -0.0883744
0.0310818 0.215656 -0.0884342
0.0309727 0.181657 -0.0873999
0.0309626 0.182126 -0.0879287
0.0314638 0.182624 -0.0879699
0.0314663 0.183622 -0.0880296
0.0314688 0.18462 -0.0880894
0.0314714 0.185618 -0.0881492
0.0309854 0.186648 -0.0876987
0.0309728 0.186119 -0.0881678
0.0309525 0.182596 -0.0884576
0.0309551 0.183594 -0.0885174
0.0309576 0.184592 -0.0885771
0.0309602 0.18559 -0.0886369
0.0303016 0.213262 -0.0782527
0.030289 0.212733 -0.0787218
0.0303042 0.21426 -0.0783125
0.0303067 0.215259 -0.0783723
0.0303093 0.216257 -0.0784321
0.0303118 0.217255 -0.0784918
0.0303143 0.218253 -0.0785516
0.0303169 0.219252 -0.0786114
0.0308079 0.220218 -0.0791814
0.0303194 0.22025 -0.0786712
0.0303093 0.220719 -0.0792
0.0302738 0.211206 -0.0791312
0.0302612 0.210677 -0.0796002
0.0307624 0.211174 -0.0796414
0.0302764 0.212204 -0.0791909
0.0307877 0.221156 -0.0802391
0.0302992 0.221188 -0.0797289
0.0302891 0.221657 -0.0802577
0.0307396 0.211115 -0.0806394
0.0302385 0.210618 -0.0805982
0.0302664 0.221598 -0.0812557
0.0307169 0.211055 -0.0816373
0.0302158 0.210558 -0.0815962
0.0302437 0.221538 -0.0822537
0.030193 0.210498 -0.0825941
0.030221 0.221478 -0.0832516
0.0306715 0.210936 -0.0836332
0.0301703 0.210438 -0.0835921
0.0301957 0.22042 -0.0841898
0.0302083 0.220949 -0.0837207
0.0306487 0.210876 -0.0846312
0.0301476 0.210379 -0.08459
0.0301704 0.219363 -0.085128
0.0301831 0.219892 -0.0846589
0.0300715 0.184895 -0.0835648
0.0300589 0.184366 -0.0840339
0.03056 0.184863 -0.0840751
0.0305625 0.185861 -0.0841348
0.030074 0.185893 -0.0836246
0.0300639 0.186362 -0.0841534
0.030626 0.210816 -0.0856291
0.0301249 0.210319 -0.085588
0.0301452 0.218305 -0.0860662
0.0301578 0.218834 -0.0855971
0.0300386 0.180842 -0.0843237
0.030026 0.180313 -0.0847928
0.0305271 0.18081 -0.0848339
0.0305297 0.181808 -0.0848937
0.0300411 0.18184 -0.0843834
0.0305322 0.182807 -0.0849535
0.0300437 0.182838 -0.0844432
0.0305347 0.183805 -0.0850132
0.0300462 0.183837 -0.084503
0.0305373 0.184803 -0.085073
0.0305398 0.185801 -0.0851328
0.0300538 0.186831 -0.0846823
0.0305424 0.186799 -0.0851926
0.0305449 0.187798 -0.0852523
0.0300564 0.187829 -0.0847421
0.0300463 0.188299 -0.0852709
0.0306033 0.210756 -0.0866271
0.0301021 0.210259 -0.086586
0.0301199 0.217247 -0.0870044
0.0301326 0.217776 -0.0865353
0.0300133 0.179784 -0.0852619
0.0300007 0.179255 -0.085731
0.0305019 0.179752 -0.0857721
0.0305044 0.18075 -0.0858319
0.0305069 0.181749 -0.0858916
0.0305196 0.18674 -0.0861905
0.0305222 0.187738 -0.0862503
0.0300362 0.188768 -0.0857998
0.0305247 0.188736 -0.0863101
0.0300261 0.189237 -0.0863287
0.0300921 0.210729 -0.0871148
0.030082 0.211198 -0.0876437
0.0305831 0.211695 -0.0876848
0.0300947 0.216189 -0.0879425
0.0301073 0.216718 -0.0874735
0.0299906 0.179724 -0.0862598
0.0299805 0.180194 -0.0867887
0.0304817 0.180691 -0.0868298
0.0304994 0.187678 -0.0872482
0.030502 0.188676 -0.087308
0.030016 0.189706 -0.0868575
0.0305045 0.189675 -0.0873678
0.0300059 0.190176 -0.0873864
0.0300719 0.211667 -0.0881725
0.0300744 0.212665 -0.0882323
0.030077 0.213663 -0.0882921
0.0300795 0.214662 -0.0883519
0.030082 0.21566 -0.0884116
0.0299704 0.180663 -0.0873175
0.0299603 0.181132 -0.0878464
0.0304615 0.181629 -0.0878876
0.0304742 0.18662 -0.0881864
0.0304767 0.187619 -0.0882462
0.0304793 0.188617 -0.088306
0.0304818 0.189615 -0.0883657
0.0299832 0.190116 -0.0883844
0.0299503 0.181601 -0.0883753
0.0299528 0.1826 -0.088435
0.0299553 0.183598 -0.0884948
0.0299452 0.184067 -0.0890237
0.0304464 0.184564 -0.0890648
0.0304489 0.185562 -0.0891246
0.0304515 0.186561 -0.0891844
0.030454 0.187559 -0.0892442
0.0304565 0.188557 -0.0893039
0.0304591 0.189555 -0.0893637
0.0299605 0.190056 -0.0893823
0.0299351 0.184536 -0.0895526
0.0299377 0.185535 -0.0896123
0.0299402 0.186533 -0.0896721
0.0299428 0.187531 -0.0897319
0.0299453 0.188529 -0.0897916
0.0299478 0.189527 -0.0898514
0.0292994 0.212268 -0.0781704
0.0292867 0.211739 -0.0786395
0.0297879 0.212236 -0.0786807
0.0293019 0.213266 -0.0782302
0.0293044 0.214264 -0.07829
0.029307 0.215263 -0.0783498
0.0293095 0.216261 -0.0784095
0.0293121 0.217259 -0.0784693
0.0293146 0.218257 -0.0785291
0.0293171 0.219255 -0.0785888
0.0293197 0.220254 -0.0786486
0.0298107 0.22122 -0.0792186
0.0293222 0.221252 -0.0787084
0.0293121 0.221721 -0.0792373
0.0292741 0.21121 -0.0791086
0.0292615 0.210681 -0.0795777
0.0292894 0.221661 -0.0802352
0.0292388 0.210621 -0.0805757
0.0292667 0.221602 -0.0812332
0.029216 0.210562 -0.0815736
0.029244 0.221542 -0.0822311
0.0292034 0.210033 -0.0820427
0.0291908 0.209504 -0.0825118
0.0296919 0.210001 -0.082553
0.0292212 0.221482 -0.0832291
0.0296692 0.209941 -0.0835509
0.029168 0.209444 -0.0835098
0.0296971 0.220922 -0.0842084
0.0291985 0.221423 -0.084227
0.0290843 0.180965 -0.0823052
0.0290717 0.180436 -0.0827743
0.0295728 0.180933 -0.0828155
0.0295754 0.181932 -0.0828752
0.0290869 0.181963 -0.082365
0.0295779 0.18293 -0.082935
0.0290894 0.182962 -0.0824248
0.0295804 0.183928 -0.0829948
0.0290919 0.18396 -0.0824845
0.029583 0.184926 -0.0830546
0.0290945 0.184958 -0.0825443
0.0295855 0.185925 -0.0831143
0.029097 0.185956 -0.0826041
0.0295881 0.186923 -0.0831741
0.0290996 0.186955 -0.0826639
0.0290895 0.187424 -0.0831927
0.0296465 0.209882 -0.0845489
0.0291453 0.209384 -0.0845077
0.0296718 0.219864 -0.0851466
0.0291732 0.220365 -0.0851652
0.0291859 0.220894 -0.0846961
0.0290591 0.179907 -0.0832434
0.0290464 0.179378 -0.0837125
0.0295476 0.179876 -0.0837537
0.0295501 0.180874 -0.0838134
0.0295526 0.181872 -0.0838732
0.0295552 0.18287 -0.083933
0.0295577 0.183868 -0.0839927
0.0295653 0.186863 -0.0841721
0.0290794 0.187893 -0.0837216
0.0295679 0.187861 -0.0842318
0.0295704 0.188859 -0.0842916
0.0290819 0.188891 -0.0837814
0.029573 0.189858 -0.0843514
0.0290844 0.189889 -0.0838411
0.0290744 0.190359 -0.08437
0.0296237 0.209822 -0.0855468
0.0291226 0.209325 -0.0855057
0.0291454 0.218309 -0.0860436
0.0291581 0.218838 -0.0855746
0.0291606 0.219836 -0.0856343
0.0290338 0.178849 -0.0841816
0.0290212 0.178321 -0.0846507
0.0295223 0.178818 -0.0846918
0.0295248 0.179816 -0.0847516
0.0295477 0.1888 -0.0852896
0.0295502 0.189798 -0.0853493
0.0290643 0.190828 -0.0848989
0.0295528 0.190796 -0.0854091
0.0290542 0.191297 -0.0854277
0.0291125 0.209794 -0.0860346
0.0291024 0.210263 -0.0865634
0.0291202 0.217251 -0.0869818
0.0291328 0.21778 -0.0865127
0.0294996 0.178758 -0.0856898
0.0289984 0.178261 -0.0856486
0.0295275 0.189738 -0.0863473
0.02953 0.190736 -0.0864071
0.0290441 0.191766 -0.0859566
0.0295326 0.191735 -0.0864668
0.029034 0.192236 -0.0864855
0.0295808 0.210701 -0.0876025
0.0290797 0.210203 -0.0875614
0.0290924 0.215195 -0.0878602
0.029105 0.215723 -0.0873911
0.0295935 0.215692 -0.0879014
0.0291076 0.216722 -0.0874509
0.0289883 0.17873 -0.0861775
0.0289783 0.179199 -0.0867064
0.0294794 0.179696 -0.0867475
0.0295073 0.190677 -0.087405
0.0295099 0.191675 -0.0874648
0.0290113 0.192176 -0.0874834
0.0290696 0.210673 -0.0880902
0.0290721 0.211671 -0.08815
0.0290747 0.212669 -0.0882098
0.0290772 0.213667 -0.0882696
0.0290798 0.214666 -0.0883293
0.0289682 0.179669 -0.0872352
0.0289707 0.180667 -0.087295
0.0289606 0.181136 -0.0878239
0.0294846 0.190617 -0.088403
0.0294871 0.191615 -0.0884628
0.0289885 0.192116 -0.0884814
0.0289505 0.181605 -0.0883527
0.0289531 0.182604 -0.0884125
0.0289556 0.183602 -0.0884723
0.0289455 0.184071 -0.0890012
0.0294619 0.190557 -0.0894009
0.0294644 0.191556 -0.0894607
0.0289658 0.192057 -0.0894793
0.0289354 0.18454 -0.08953
0.028938 0.185538 -0.0895898
0.0289405 0.186537 -0.0896496
0.028943 0.187535 -0.0897093
0.0289329 0.188004 -0.0902382
0.0294341 0.188501 -0.0902794
0.0294366 0.189499 -0.0903391
0.0294392 0.190498 -0.0903989
0.0294417 0.191496 -0.0904587
0.0289431 0.191997 -0.0904773
0.0289228 0.188473 -0.0907671
0.0289254 0.189472 -0.0908268
0.0289279 0.19047 -0.0908866
0.0289305 0.191468 -0.0909464
0.0283249 0.21333 -0.0772097
0.0283123 0.212801 -0.0776788
0.0288134 0.213298 -0.07772
0.0288159 0.214296 -0.0777797
0.0283274 0.214328 -0.0772695
0.0288185 0.215294 -0.0778395
0.02833 0.215326 -0.0773293
0.028821 0.216293 -0.0778993
0.0283325 0.216324 -0.077389
0.0288236 0.217291 -0.0779591
0.028335 0.217323 -0.0774488
0.0288261 0.218289 -0.0780188
0.0283376 0.218321 -0.0775086
0.0288286 0.219287 -0.0780786
0.0283401 0.219319 -0.0775684
0.0288312 0.220285 -0.0781384
0.0283427 0.220317 -0.0776281
0.0283326 0.220786 -0.078157
0.0282971 0.211274 -0.0780881
0.0282845 0.210745 -0.0785572
0.0287856 0.211242 -0.0785984
0.0282996 0.212272 -0.0781479
0.0283225 0.221256 -0.0786859
0.0283124 0.221725 -0.0792147
0.0282718 0.210216 -0.0790263
0.0282592 0.209687 -0.0794954
0.0287603 0.210184 -0.0795366
0.0287908 0.222162 -0.0802538
0.0283023 0.222194 -0.0797436
0.0282922 0.222663 -0.0802725
0.0287376 0.210124 -0.0805345
0.0282365 0.209627 -0.0804934
0.0287681 0.222103 -0.0812518
0.0282695 0.222604 -0.0812704
0.0287149 0.210065 -0.0815325
0.0282138 0.209567 -0.0814913
0.0287454 0.222043 -0.0822498
0.0282468 0.222544 -0.0822684
0.0281326 0.182087 -0.0803466
0.0281199 0.181558 -0.0808156
0.0286211 0.182055 -0.0808568
0.0286236 0.183053 -0.0809166
0.0281351 0.183085 -0.0804063
0.0286262 0.184051 -0.0809763
0.0281376 0.184083 -0.0804661
0.0286287 0.18505 -0.0810361
0.0281402 0.185081 -0.0805259
0.0286312 0.186048 -0.0810959
0.0281427 0.18608 -0.0805856
0.0286338 0.187046 -0.0811557
0.0281453 0.187078 -0.0806454
0.0281352 0.187547 -0.0811743
0.028191 0.209508 -0.0824893
0.0287226 0.221983 -0.0832477
0.028224 0.222484 -0.0832663
0.0281073 0.181029 -0.0812847
0.0280947 0.1805 -0.0817538
0.0285958 0.180997 -0.081795
0.0285984 0.181995 -0.0818548
0.0286009 0.182993 -0.0819145
0.0286034 0.183992 -0.0819743
0.028606 0.18499 -0.0820341
0.0286085 0.185988 -0.0820938
0.028611 0.186986 -0.0821536
0.0281251 0.188016 -0.0817031
0.0286136 0.187985 -0.0822134
0.0286161 0.188983 -0.0822732
0.0281276 0.189015 -0.0817629
0.0286187 0.189981 -0.0823329
0.0281302 0.190013 -0.0818227
0.0281201 0.190482 -0.0823516
0.0281683 0.209448 -0.0834872
0.0281988 0.221426 -0.0842045
0.0282114 0.221955 -0.0837354
0.0280795 0.178973 -0.0821631
0.0280669 0.178444 -0.0826322
0.028568 0.178941 -0.0826734
0.0285705 0.179939 -0.0827332
0.028082 0.179971 -0.0822229
0.0285909 0.187925 -0.0832113
0.0285934 0.188923 -0.0832711
0.0285959 0.189921 -0.0833309
0.02811 0.190951 -0.0828804
0.0285985 0.190919 -0.0833907
0.0280999 0.191421 -0.0834093
0.0281456 0.209388 -0.0844852
0.0286746 0.220866 -0.0851839
0.028176 0.221367 -0.0852025
0.0280517 0.176917 -0.0830416
0.0280391 0.176388 -0.0835107
0.0285402 0.176885 -0.0835518
0.0285427 0.177883 -0.0836116
0.0280542 0.177915 -0.0831013
0.0285453 0.178881 -0.0836714
0.0285758 0.19086 -0.0843886
0.0280898 0.19189 -0.0839382
0.0285783 0.191858 -0.0844484
0.0280797 0.192359 -0.084467