<VTKFile type="UnstructuredGrid" version="0.1" byte_order="BigEndian">
  <UnstructuredGrid>
    <Piece NumberOfPoints="18954" NumberOfCells="37908">
      <PointData>
        <DataArray type="Float64" Name="position" NumberOfComponents="3" format="ascii">
0.0448045 0.218897 -0.0823101
0.0447989 0.218369 -0.0827798
0.0453003 0.218866 -0.0828133
0.0453032 0.219864 -0.082872
0.0448074 0.219895 -0.0823688
0.0453061 0.220863 -0.0829307
0.0448103 0.220894 -0.0824276
0.0448075 0.221364 -0.082956
0.045292 0.218807 -0.0838115
0.0447906 0.21831 -0.0837781
0.0452949 0.219806 -0.0838703
0.0452978 0.220804 -0.083929
0.0448048 0.221833 -0.0834845
0.0453006 0.221802 -0.0839877
0.0448021 0.222303 -0.084013
0.0452837 0.218749 -0.0848098
0.0447823 0.218251 -0.0847763
0.0452866 0.219747 -0.0848685
0.0452894 0.220745 -0.0849272
0.0452923 0.221744 -0.084986
0.0447938 0.222244 -0.0850112
0.0452754 0.21869 -0.085808
0.0447739 0.218193 -0.0857746
0.0452782 0.219688 -0.0858667
0.0452811 0.220687 -0.0859255
0.045284 0.221685 -0.0859842
0.0447855 0.222186 -0.0860095
0.0447712 0.218662 -0.0863031
0.0447685 0.219132 -0.0868315
0.0452699 0.21963 -0.086865
0.0452728 0.220628 -0.0869237
0.0447799 0.221657 -0.0864792
0.0447743 0.221129 -0.086949
0.0447658 0.219602 -0.08736
0.0447687 0.2206 -0.0874188
0.0438183 0.21802 -0.0802467
0.0438127 0.217491 -0.0807165
0.0443141 0.217989 -0.0807499
0.044317 0.218987 -0.0808087
0.0438212 0.219018 -0.0803055
0.0443199 0.219985 -0.0808674
0.043824 0.220016 -0.0803642
0.0443227 0.220983 -0.0809261
0.0438269 0.221015 -0.0804229
0.0438242 0.221484 -0.0809514
0.0443058 0.21793 -0.0817482
0.0438044 0.217433 -0.0817147
0.0443087 0.218928 -0.0818069
0.0443116 0.219927 -0.0818656
0.0443144 0.220925 -0.0819244
0.0438215 0.221954 -0.0814799
0.0443173 0.221923 -0.0819831
0.0438188 0.222424 -0.0820084
0.0442975 0.217871 -0.0827464
0.0437961 0.217374 -0.082713
0.044309 0.221864 -0.0829813
0.0438104 0.222365 -0.0830066
0.0442892 0.217813 -0.0837447
0.0437877 0.217315 -0.0837112
0.0443035 0.222804 -0.0840383
0.0438077 0.222835 -0.0835351
0.043805 0.223305 -0.0840636
0.0442808 0.217754 -0.0847429
0.0437794 0.217256 -0.0847095
0.0442952 0.222745 -0.0850365
0.0437967 0.223246 -0.0850618
0.0442725 0.217695 -0.0857411
0.0437711 0.217198 -0.0857077
0.0442869 0.222687 -0.0860348
0.0437884 0.223187 -0.0860601
0.0442642 0.217636 -0.0867394
0.0437628 0.217139 -0.0867059
0.0442671 0.218635 -0.0867981
0.0442757 0.22163 -0.0869743
0.0437772 0.22213 -0.0869996
0.0437828 0.222659 -0.0865298
0.0437601 0.217609 -0.0872344
0.0437629 0.218607 -0.0872932
0.0437658 0.219605 -0.0873519
0.0437687 0.220604 -0.0874106
0.0437716 0.221602 -0.0874694
0.0428378 0.219139 -0.0783009
0.0428322 0.21861 -0.0787706
0.0433337 0.219108 -0.078804
0.0433365 0.220106 -0.0788628
0.0428407 0.220137 -0.0783596
0.0433394 0.221104 -0.0789215
0.0428436 0.221135 -0.0784183
0.0428409 0.221605 -0.0789468
0.0428267 0.218082 -0.0792404
0.0428211 0.217553 -0.0797101
0.0433225 0.218051 -0.0797436
0.0433254 0.219049 -0.0798023
0.0433282 0.220047 -0.079861
0.0433311 0.221046 -0.0799197
0.0428382 0.222075 -0.0794753
0.043334 0.222044 -0.0799785
0.0428354 0.222545 -0.0800038
0.0428155 0.217025 -0.0801799
0.0428099 0.216496 -0.0806496
0.0433113 0.216994 -0.0806831
0.0433257 0.221985 -0.0809767
0.0428327 0.223014 -0.0805323
0.0433285 0.222983 -0.0810354
0.04283 0.223484 -0.0810607
0.043303 0.216935 -0.0816813
0.0428015 0.216438 -0.0816479
0.0433202 0.222925 -0.0820337
0.0428217 0.223426 -0.082059
0.0432946 0.216876 -0.0826796
0.0427932 0.216379 -0.0826461
0.0433119 0.222866 -0.0830319
0.0428134 0.223367 -0.0830572
0.0432863 0.216818 -0.0836778
0.0427849 0.21632 -0.0836444
0.042805 0.223308 -0.0840555
0.043278 0.216759 -0.084676
0.0427766 0.216262 -0.0846426
0.0427967 0.223249 -0.0850537
0.0432697 0.2167 -0.0856743
0.0427683 0.216203 -0.0856408
0.0427855 0.222192 -0.0859932
0.0427911 0.222721 -0.0855235
0.0432869 0.22269 -0.0860267
0.0432614 0.216642 -0.0866725
0.0427599 0.216144 -0.0866391
0.0427772 0.222134 -0.0869915
0.0427572 0.216614 -0.0871676
0.0427601 0.217612 -0.0872263
0.042763 0.21861 -0.087285
0.0427659 0.219609 -0.0873438
0.0427687 0.220607 -0.0874025
0.0427716 0.221605 -0.0874612
0.041835 0.218144 -0.078234
0.0418294 0.217615 -0.0787038
0.0423308 0.218113 -0.0787372
0.0418379 0.219142 -0.0782927
0.0418408 0.22014 -0.0783515
0.041838 0.22061 -0.0788799
0.0423395 0.221108 -0.0789134
0.0418238 0.217087 -0.0791735
0.0418182 0.216558 -0.0796433
0.0423196 0.217056 -0.0796767
0.0418353 0.22108 -0.0794084
0.0418326 0.22155 -0.0799369
0.042334 0.222047 -0.0799703
0.0418099 0.2165 -0.0806415
0.0418299 0.22202 -0.0804654
0.0418272 0.222489 -0.0809939
0.0423286 0.222987 -0.0810273
0.0418043 0.215971 -0.0811113
0.0417987 0.215443 -0.081581
0.0423001 0.21594 -0.0816144
0.0418244 0.222959 -0.0815224
0.0418217 0.223429 -0.0820508
0.0422918 0.215881 -0.0826127
0.0417904 0.215384 -0.0825793
0.0418134 0.22337 -0.0830491
0.0422835 0.215823 -0.0836109
0.0417821 0.215325 -0.0835775
0.0418051 0.223311 -0.0840473
0.0417793 0.215795 -0.084106
0.0417766 0.216265 -0.0846345
0.0417939 0.222254 -0.0849868
0.0417995 0.222783 -0.0845171
0.0422953 0.222752 -0.0850203
0.0417683 0.216206 -0.0856327
0.0417856 0.222196 -0.0859851
0.04176 0.216147 -0.0866309
0.0417744 0.221139 -0.0869246
0.04178 0.221667 -0.0864548
0.0422758 0.221636 -0.086958
0.0417573 0.216617 -0.0871594
0.0417601 0.217616 -0.0872182
0.041763 0.218614 -0.0872769
0.0417659 0.219612 -0.0873356
0.0417688 0.22061 -0.0873944
0.0408322 0.217149 -0.0781671
0.0408266 0.21662 -0.0786369
0.041328 0.217118 -0.0786703
0.040835 0.218147 -0.0782259
0.0408379 0.219145 -0.0782846
0.0408408 0.220144 -0.0783433
0.0408381 0.220614 -0.0788718
0.040821 0.216092 -0.0791066
0.0408154 0.215563 -0.0795764
0.0413168 0.216061 -0.0796098
0.0408354 0.221083 -0.0794003
0.0408326 0.221553 -0.0799288
0.0413085 0.216002 -0.0806081
0.0408071 0.215505 -0.0805746
0.0413257 0.221992 -0.0809604
0.0408243 0.221494 -0.080927
0.0408015 0.214976 -0.0810444
0.0407959 0.214448 -0.0815141
0.0412973 0.214945 -0.0815476
0.0408216 0.221964 -0.0814555
0.0408189 0.222434 -0.081984
0.0413203 0.222931 -0.0820174
0.041289 0.214887 -0.0825458
0.0407875 0.214389 -0.0825124
0.041312 0.222873 -0.0830157
0.0408106 0.222375 -0.0829822
0.0412806 0.214828 -0.0835441
0.0407792 0.21433 -0.0835106
0.0413037 0.222814 -0.0840139
0.0408022 0.222317 -0.0839805
0.0407765 0.2148 -0.0840391
0.0407738 0.21527 -0.0845676
0.0412752 0.215767 -0.084601
0.040791 0.22126 -0.08492
0.0407966 0.221788 -0.0844502
0.0412925 0.221757 -0.0849534
0.0412669 0.215709 -0.0855993
0.0407655 0.215211 -0.0855658
0.0407799 0.220203 -0.0858595
0.0407855 0.220731 -0.0853897
0.0412813 0.2207 -0.0858929
0.0412841 0.221698 -0.0859517
0.0407627 0.215681 -0.0860943
0.04076 0.216151 -0.0866228
0.041273 0.220641 -0.0868912
0.0407715 0.220144 -0.0868577
0.0407573 0.216621 -0.0871513
0.0407602 0.217619 -0.08721
0.0407631 0.218617 -0.0872688
0.0407659 0.219615 -0.0873275
0.0398434 0.218209 -0.0772195
0.0398378 0.217681 -0.0776892
0.0403392 0.218178 -0.0777227
0.0403421 0.219177 -0.0777814
0.0398463 0.219208 -0.0772782
0.0398436 0.219677 -0.0778067
0.0398293 0.216154 -0.0781003
0.0398237 0.215626 -0.07857
0.0403252 0.216123 -0.0786035
0.0398322 0.217152 -0.078159
0.0398408 0.220147 -0.0783352
0.0398381 0.220617 -0.0788637
0.0398154 0.215567 -0.0795683
0.0398354 0.221087 -0.0793922
0.0398327 0.221556 -0.0799206
0.0398098 0.215038 -0.080038
0.0398042 0.21451 -0.0805078
0.0403056 0.215007 -0.0805412
0.0398244 0.221498 -0.0809189
0.0397959 0.214451 -0.081506
0.0403175 0.221937 -0.0819506
0.039816 0.221439 -0.0819171
0.0397876 0.214392 -0.0825043
0.0403091 0.221878 -0.0829488
0.0398077 0.22138 -0.0829154
0.0397793 0.214334 -0.0835025
0.0403008 0.221819 -0.083947
0.0397994 0.221322 -0.0839136
0.0402724 0.214773 -0.0845342
0.0397709 0.214275 -0.0845007
0.0397911 0.221263 -0.0849118
0.0397682 0.214745 -0.0850292
0.0397655 0.215215 -0.0855577
0.0397799 0.220206 -0.0858514
0.0397855 0.220734 -0.0853816
0.0397628 0.215684 -0.0860862
0.0397601 0.216154 -0.0866147
0.0397716 0.220147 -0.0868496
0.0397573 0.216624 -0.0871432
0.0397602 0.217622 -0.0872019
0.0397631 0.218621 -0.0872606
0.039766 0.219619 -0.0873193
0.0388434 0.218213 -0.0772113
0.0388378 0.217684 -0.0776811
0.0388463 0.219211 -0.0772701
0.0388436 0.219681 -0.0777986
0.0388294 0.216157 -0.0780921
0.0388238 0.215629 -0.0785619
0.0388322 0.217156 -0.0781509
0.0388409 0.22015 -0.078327
0.0388382 0.22062 -0.0788555
0.0388182 0.2151 -0.0790316
0.0388126 0.214572 -0.0795014
0.039314 0.215069 -0.0795348
0.0388354 0.22109 -0.079384
0.0388327 0.22156 -0.0799125
0.0388043 0.214513 -0.0804996
0.0388244 0.221501 -0.0809107
0.0387987 0.213985 -0.0809694
0.0387931 0.213456 -0.0814391
0.0392945 0.213954 -0.0814726
0.0388161 0.221442 -0.081909
0.0392862 0.213895 -0.0824708
0.0387847 0.213398 -0.0824374
0.0388078 0.221384 -0.0829072
0.0392778 0.213836 -0.0834691
0.0387764 0.213339 -0.0834356
0.0387994 0.221325 -0.0839055
0.0387737 0.213809 -0.0839641
0.038771 0.214278 -0.0844926
0.0387911 0.221266 -0.0849037
0.0392641 0.214717 -0.0855243
0.0387627 0.21422 -0.0854908
0.0387799 0.220209 -0.0858432
0.0387855 0.220738 -0.0853735
0.0387599 0.214689 -0.0860193
0.0387572 0.215159 -0.0865478
0.0392586 0.215657 -0.0865812
0.0387659 0.218154 -0.086724
0.0387715 0.218683 -0.0862542
0.0392673 0.218652 -0.0867574
0.0387743 0.219681 -0.086313
0.0392702 0.21965 -0.0868162
0.0387545 0.215629 -0.0870763
0.0387574 0.216627 -0.087135
0.0387603 0.217626 -0.0871938
0.0383393 0.218185 -0.0777064
0.0383422 0.219183 -0.0777651
0.0378265 0.215162 -0.0780253
0.0378209 0.214634 -0.078495
0.0383224 0.215131 -0.0785285
0.0378294 0.216161 -0.078084
0.0378323 0.217159 -0.0781427
0.0378352 0.218157 -0.0782015
0.037838 0.219156 -0.0782602
0.0378409 0.220154 -0.0783189
0.0378382 0.220624 -0.0788474
0.0378126 0.214575 -0.0794933
0.0383313 0.221062 -0.0798791
0.0378299 0.220565 -0.0798456
0.037807 0.214047 -0.079963
0.0378014 0.213518 -0.0804328
0.0383028 0.214016 -0.0804662
0.0378272 0.221035 -0.0803741
0.0378244 0.221504 -0.0809026
0.0377931 0.21346 -0.081431
0.0378161 0.221446 -0.0819008
0.0377848 0.213401 -0.0824293
0.0378078 0.221387 -0.0828991
0.0377765 0.213342 -0.0834275
0.0377995 0.221328 -0.0838973
0.0382696 0.213781 -0.0844592
0.0377681 0.213284 -0.0844257
0.0377883 0.220271 -0.0848368
0.0377939 0.2208 -0.0843671
0.0382897 0.220769 -0.0848703
0.0377654 0.213753 -0.0849542
0.0377627 0.214223 -0.0854827
0.03778 0.220213 -0.0858351
0.0382558 0.214662 -0.0865144
0.0377544 0.214164 -0.0864809
0.0377659 0.218157 -0.0867159
0.0377715 0.218686 -0.0862461
0.0377744 0.219684 -0.0863048
0.0377517 0.214634 -0.0870094
0.0377545 0.215632 -0.0870682
0.0377574 0.216631 -0.0871269
0.0377603 0.217629 -0.0871856
0.0368266 0.215166 -0.0780171
0.036821 0.214637 -0.0784869
0.0368294 0.216164 -0.0780759
0.0368323 0.217162 -0.0781346
0.0368352 0.218161 -0.0781933
0.0368381 0.219159 -0.078252
0.0368354 0.219629 -0.0787805
0.0373368 0.220126 -0.078814
0.0368154 0.214109 -0.0789566
0.0368098 0.21358 -0.0794264
0.0373112 0.214078 -0.0794598
0.0368326 0.220098 -0.079309
0.0368299 0.220568 -0.0798375
0.0368015 0.213522 -0.0804246
0.0368272 0.221038 -0.080366
0.0368245 0.221508 -0.0808945
0.0367959 0.212993 -0.0808944
0.0367903 0.212465 -0.0813641
0.0372917 0.212962 -0.0813976
0.0368162 0.221449 -0.0818927
0.0372834 0.212903 -0.0823958
0.0367819 0.212406 -0.0823624
0.0368078 0.22139 -0.082891
0.0367792 0.212876 -0.0828909
0.0367765 0.213346 -0.0834194
0.0367966 0.220333 -0.0838305
0.0368022 0.220862 -0.0833607
0.0372981 0.220831 -0.0838639
0.0367682 0.213287 -0.0844176
0.0367883 0.220275 -0.0848287
0.0372613 0.213726 -0.0854493
0.0367599 0.213228 -0.0854158
0.0367771 0.219218 -0.0857682
0.0367827 0.219746 -0.0852985
0.0372785 0.219715 -0.0858017
0.037253 0.213667 -0.0864475
0.0367515 0.213169 -0.0864141
0.0367659 0.218161 -0.0867077
0.0367715 0.218689 -0.086238
0.0367488 0.213639 -0.0869426
0.0367517 0.214638 -0.0870013
0.0367546 0.215636 -0.08706
0.0367575 0.216634 -0.0871188
0.0367603 0.217632 -0.0871775
0.0358237 0.214171 -0.0779503
0.0358181 0.213642 -0.07842
0.0363196 0.21414 -0.0784535
0.0358266 0.215169 -0.078009
0.0358295 0.216167 -0.0780677
0.0358324 0.217166 -0.0781265
0.0358352 0.218164 -0.0781852
0.0358381 0.219162 -0.0782439
0.0358354 0.219632 -0.0787724
0.0358125 0.213114 -0.0788898
0.0358069 0.212585 -0.0793595
0.0363084 0.213083 -0.079393
0.0358327 0.220102 -0.0793009
0.03583 0.220572 -0.0798294
0.0363 0.213024 -0.0803912
0.0357986 0.212527 -0.0803578
0.0363231 0.22101 -0.080861
0.0358216 0.220513 -0.0808276
0.0357903 0.212468 -0.081356
0.0363147 0.220952 -0.0818593
0.0358133 0.220454 -0.0818258
0.035782 0.212409 -0.0823543
0.0363064 0.220893 -0.0828575
0.035805 0.220396 -0.0828241
0.0362751 0.212848 -0.0833859
0.0357737 0.212351 -0.0833525
0.0357967 0.220337 -0.0838223
0.0362668 0.212789 -0.0843842
0.0357653 0.212292 -0.0843507
0.0357884 0.220278 -0.0848206
0.0357626 0.212762 -0.0848792
0.0357599 0.213232 -0.0854077
0.0357772 0.219221 -0.0857601
0.0357828 0.21975 -0.0852903
0.0357516 0.213173 -0.0864059
0.035766 0.218164 -0.0866996
0.0357716 0.218693 -0.0862298
0.0357489 0.213643 -0.0869344
0.0357461 0.214112 -0.0874629
0.0362476 0.21461 -0.0874963
0.0362504 0.215608 -0.0875551
0.0357519 0.216109 -0.0875804
0.0357575 0.216637 -0.0871106
0.0357604 0.217636 -0.0871693
0.0357434 0.214582 -0.0879914
0.0357463 0.21558 -0.0880501
0.0348238 0.214174 -0.0779421
0.0348182 0.213646 -0.0784119
0.0348266 0.215173 -0.0780009
0.0348295 0.216171 -0.0780596
0.0348324 0.217169 -0.0781183
0.0348353 0.218167 -0.078177
0.0348382 0.219166 -0.0782358
0.0348354 0.219635 -0.0787643
0.0348126 0.213117 -0.0788816
0.034807 0.212589 -0.0793514
0.0348327 0.220105 -0.0792927
0.03483 0.220575 -0.0798212
0.0348014 0.21206 -0.0798212
0.0347958 0.211532 -0.0802909
0.0352972 0.212029 -0.0803243
0.0348217 0.220516 -0.0808195
0.0352889 0.211971 -0.0813226
0.0347875 0.211473 -0.0812891
0.0348134 0.220458 -0.0818177
0.0347847 0.211943 -0.0818176
0.034782 0.212413 -0.0823461
0.034805 0.220399 -0.082816
0.0347737 0.212354 -0.0833444
0.0347967 0.22034 -0.0838142
0.0347654 0.212295 -0.0843426
0.0347884 0.220281 -0.0848124
0.0352585 0.212734 -0.0853743
0.0347571 0.212237 -0.0853408
0.0347772 0.219224 -0.0857519
0.0347828 0.219753 -0.0852822
0.0352502 0.212675 -0.0863725
0.0347487 0.212178 -0.0863391
0.0347631 0.217169 -0.0866327
0.0347687 0.217698 -0.086163
0.0352646 0.217667 -0.0866662
0.0347716 0.218696 -0.0862217
0.034746 0.212648 -0.0868676
0.0347489 0.213646 -0.0869263
0.0347462 0.214116 -0.0874548
0.0347519 0.216112 -0.0875722
0.0347575 0.216641 -0.0871025
0.0347435 0.214586 -0.0879833
0.0347463 0.215584 -0.088042
0.0338238 0.214178 -0.077934
0.0338182 0.213649 -0.0784037
0.0338267 0.215176 -0.0779927
0.0338296 0.216174 -0.0780515
0.0338324 0.217172 -0.0781102
0.0338353 0.218171 -0.0781689
0.0338382 0.219169 -0.0782276
0.0338355 0.219639 -0.0787561
0.0338097 0.212122 -0.0788148
0.0338041 0.211594 -0.0792845
0.0343056 0.212091 -0.079318
0.0338126 0.213121 -0.0788735
0.0338328 0.220109 -0.0792846
0.03383 0.220578 -0.0798131
0.0337958 0.211535 -0.0802828
0.0338217 0.22052 -0.0808113
0.0337875 0.211477 -0.081281
0.0338134 0.220461 -0.0818096
0.0342806 0.211915 -0.0823127
0.0337792 0.211418 -0.0822793
0.0338051 0.220402 -0.0828078
0.0342723 0.211857 -0.0833109
0.0337709 0.211359 -0.0832775
0.0337968 0.220344 -0.0838061
0.034264 0.211798 -0.0843092
0.0337625 0.2113 -0.0842757
0.0337884 0.220285 -0.0848043
0.0337598 0.21177 -0.0848042
0.0337571 0.21224 -0.0853327
0.0337772 0.219228 -0.0857438
0.0337828 0.219756 -0.0852741
0.0337488 0.212181 -0.0863309
0.0337632 0.217173 -0.0866246
0.0337688 0.217701 -0.0861548
0.0337716 0.218699 -0.0862136
0.0337461 0.212651 -0.0868594
0.0337433 0.213121 -0.0873879
0.0342448 0.213618 -0.0874213
0.033752 0.216116 -0.0875641
0.0337576 0.216644 -0.0870943
0.0337406 0.213591 -0.0879164
0.0337435 0.214589 -0.0879751
0.0337464 0.215587 -0.0880339
0.032821 0.213183 -0.0778671
0.0328154 0.212654 -0.0783369
0.0333168 0.213152 -0.0783703
0.0328238 0.214181 -0.0779259
0.0328267 0.215179 -0.0779846
0.0328296 0.216178 -0.0780433
0.0328325 0.217176 -0.078102
0.0328354 0.218174 -0.0781608
0.0328382 0.219172 -0.0782195
0.0328355 0.219642 -0.078748
0.0328098 0.212126 -0.0788066
0.0328042 0.211597 -0.0792764
0.0328328 0.220112 -0.0792765
0.0328301 0.220582 -0.079805
0.0327959 0.211539 -0.0802746
0.0328218 0.220523 -0.0808032
0.0327875 0.21148 -0.0812729
0.0328134 0.220464 -0.0818014
0.0327792 0.211421 -0.0822711
0.0328051 0.220406 -0.0827997
0.0327709 0.211362 -0.0832694
0.0327968 0.220347 -0.0837979
0.0327626 0.211304 -0.0842676
0.0327856 0.21929 -0.0847374
0.0327912 0.219818 -0.0842677
0.033287 0.219787 -0.0847709
0.0332557 0.211743 -0.0852993
0.0327543 0.211245 -0.0852658
0.0327744 0.218233 -0.0856769
0.03278 0.218761 -0.0852072
0.0332758 0.21873 -0.0857104
0.0332474 0.211684 -0.0862975
0.0327459 0.211186 -0.0862641
0.0327632 0.217176 -0.0866165
0.0327688 0.217704 -0.0861467
0.0327432 0.211656 -0.0867926
0.0327405 0.212126 -0.0873211
0.0332419 0.212623 -0.0873545
0.032752 0.216119 -0.087556
0.0327576 0.216647 -0.0870862
0.0327378 0.212596 -0.0878495
0.0327407 0.213594 -0.0879083
0.0327435 0.214592 -0.087967
0.0327464 0.215591 -0.0880257
0.031821 0.213186 -0.077859
0.0318154 0.212658 -0.0783287
0.0318239 0.214184 -0.0779177
0.0318268 0.215183 -0.0779765
0.0318296 0.216181 -0.0780352
0.0318325 0.217179 -0.0780939
0.0318354 0.218177 -0.0781526
0.0318383 0.219176 -0.0782114
0.0318356 0.219646 -0.0787399
0.0318098 0.212129 -0.0787985
0.0318042 0.211601 -0.0792683
0.0318328 0.220115 -0.0792683
0.0318301 0.220585 -0.0797968
0.0317959 0.211542 -0.0802665
0.0323232 0.221024 -0.0808285
0.0318274 0.221055 -0.0803253
0.0318247 0.221525 -0.0808538
0.0317876 0.211483 -0.0812647
0.0323149 0.220965 -0.0818267
0.0318164 0.221466 -0.081852
0.031782 0.210955 -0.0817345
0.0317764 0.210426 -0.0822043
0.0322778 0.210924 -0.0822377
0.0323066 0.220906 -0.082825
0.031808 0.221407 -0.0828503
0.0317737 0.210896 -0.0827327
0.0317709 0.211366 -0.0832612
0.0317968 0.22035 -0.0837898
0.0318024 0.220879 -0.08332
0.0317626 0.211307 -0.0842595
0.0317856 0.219293 -0.0847293
0.0317912 0.219822 -0.0842595
0.0317543 0.211248 -0.0852577
0.0317744 0.218236 -0.0856688
0.03178 0.218765 -0.0851991
0.031746 0.21119 -0.0862559
0.0317632 0.217179 -0.0866083
0.0317688 0.217708 -0.0861386
0.0316598 0.18271 -0.0850813
0.0316542 0.182181 -0.085551
0.0321556 0.182679 -0.0855845
0.0321585 0.183677 -0.0856432
0.0316627 0.183708 -0.08514
0.0321614 0.184675 -0.0857019
0.0316656 0.184706 -0.0851987
0.0321643 0.185673 -0.0857606
0.0316684 0.185704 -0.0852575
0.0316657 0.186174 -0.0857859
0.0317433 0.21166 -0.0867844
0.0317405 0.212129 -0.0873129
0.0317521 0.216122 -0.0875478
0.0317577 0.216651 -0.0870781
0.0316486 0.181653 -0.0860208
0.031643 0.181124 -0.0864905
0.0321444 0.181622 -0.086524
0.0321473 0.18262 -0.0865827
0.0321502 0.183618 -0.0866414
0.0321531 0.184616 -0.0867002
0.0321559 0.185615 -0.0867589
0.031663 0.186644 -0.0863144
0.0321588 0.186613 -0.0868176
0.0316603 0.187114 -0.0868429
0.0317378 0.212599 -0.0878414
0.0317407 0.213597 -0.0879001
0.0317436 0.214596 -0.0879589
0.0317465 0.215594 -0.0880176
0.0316403 0.181594 -0.087019
0.0316376 0.182064 -0.0875475
0.032139 0.182561 -0.0875809
0.0321419 0.18356 -0.0876397
0.0321447 0.184558 -0.0876984
0.0321476 0.185556 -0.0877571
0.0316547 0.186585 -0.0873127
0.0316491 0.186057 -0.0877824
0.0316348 0.182534 -0.088076
0.0316377 0.183532 -0.0881347
0.0316406 0.18453 -0.0881935
0.0316435 0.185528 -0.0882522
0.030821 0.213189 -0.0778509
0.0308154 0.212661 -0.0783206
0.0308239 0.214188 -0.0779096
0.0308268 0.215186 -0.0779683
0.0308297 0.216184 -0.078027
0.0308326 0.217183 -0.0780858
0.0308354 0.218181 -0.0781445
0.0308383 0.219179 -0.0782032
0.031337 0.220146 -0.0787652
0.0308412 0.220177 -0.078262
0.0308385 0.220647 -0.0787904
0.030807 0.211134 -0.0787316
0.0308014 0.210606 -0.0792014
0.0313028 0.211103 -0.0792348
0.0308098 0.212132 -0.0787904
0.0313316 0.221086 -0.0798221
0.0308358 0.221117 -0.0793189
0.030833 0.221587 -0.0798474
0.0312945 0.211044 -0.0802331
0.0307931 0.210547 -0.0801996
0.0308247 0.221528 -0.0808457
0.0312862 0.210986 -0.0812313
0.0307847 0.210488 -0.0811979
0.0308164 0.221469 -0.0818439
0.0307764 0.21043 -0.0821961
0.0308081 0.221411 -0.0828421
0.0312695 0.210868 -0.0832278
0.0307681 0.210371 -0.0831944
0.0307969 0.220354 -0.0837817
0.0308025 0.220882 -0.0833119
0.0312612 0.21081 -0.084226
0.0307598 0.210312 -0.0841926
0.0307857 0.219297 -0.0847212
0.0307913 0.219825 -0.0842514
0.0306822 0.184827 -0.0831941
0.0306766 0.184299 -0.0836639
0.0311781 0.184796 -0.0836973
0.0311809 0.185794 -0.083756
0.0306851 0.185825 -0.0832528
0.0306824 0.186295 -0.0837813
0.0312529 0.210751 -0.0852243
0.0307515 0.210254 -0.0851908
0.0307745 0.21824 -0.0856607
0.0307801 0.218768 -0.0851909
0.0306624 0.180775 -0.0839574
0.0306568 0.180247 -0.0844272
0.0311582 0.180744 -0.0844606
0.0311611 0.181742 -0.0845194
0.0306653 0.181773 -0.0840162
0.031164 0.182741 -0.0845781
0.0306682 0.182772 -0.0840749
0.0311669 0.183739 -0.0846368
0.030671 0.18377 -0.0841336
0.0311697 0.184737 -0.0846955
0.0311726 0.185736 -0.0847543
0.0306797 0.186765 -0.0843098
0.0311755 0.186734 -0.084813
0.0311784 0.187732 -0.0848717
0.0306825 0.187763 -0.0843685
0.0306798 0.188233 -0.084897
0.0312446 0.210692 -0.0862225
0.0307431 0.210195 -0.0861891
0.0307633 0.217183 -0.0866002
0.0307689 0.217711 -0.0861304
0.0306512 0.179718 -0.0848969
0.0306456 0.17919 -0.0853667
0.031147 0.179687 -0.0854001
0.0311499 0.180685 -0.0854589
0.0311528 0.181684 -0.0855176
0.0311672 0.186675 -0.0858112
0.0311701 0.187673 -0.08587
0.0306771 0.188703 -0.0854255
0.0311729 0.188672 -0.0859287
0.0306744 0.189172 -0.085954
0.0307404 0.210665 -0.0867176
0.0307377 0.211134 -0.0872461
0.0312391 0.211632 -0.0872795
0.0307521 0.216126 -0.0875397
0.0307577 0.216654 -0.0870699
0.0306429 0.17966 -0.0858952
0.0306402 0.180129 -0.0864237
0.0311416 0.180627 -0.0864571
0.0311617 0.187615 -0.0868682
0.0311646 0.188613 -0.0869269
0.0306717 0.189642 -0.0864825
0.0311675 0.189611 -0.0869857
0.0306689 0.190112 -0.087011
0.030735 0.211604 -0.0877745
0.0307379 0.212602 -0.0878333
0.0307407 0.213601 -0.087892
0.0307436 0.214599 -0.0879507
0.0307465 0.215597 -0.0880095
0.0306374 0.180599 -0.0869522
0.0306347 0.181069 -0.0874806
0.0311361 0.181566 -0.0875141
0.0311505 0.186558 -0.0878077
0.0311534 0.187556 -0.0878665
0.0311563 0.188554 -0.0879252
0.0311592 0.189552 -0.0879839
0.0306606 0.190053 -0.0880092
0.030632 0.181539 -0.0880091
0.0306349 0.182537 -0.0880679
0.0306378 0.183535 -0.0881266
0.030635 0.184005 -0.0886551
0.0311365 0.184502 -0.0886885
0.0311393 0.185501 -0.0887472
0.0311422 0.186499 -0.088806
0.0311451 0.187497 -0.0888647
0.031148 0.188496 -0.0889234
0.0311509 0.189494 -0.0889822
0.0306523 0.189995 -0.0890075
0.0306323 0.184475 -0.0891836
0.0306352 0.185473 -0.0892423
0.0306381 0.186471 -0.089301
0.030641 0.18747 -0.0893597
0.0306438 0.188468 -0.0894185
0.0306467 0.189466 -0.0894772
0.0298182 0.212195 -0.077784
0.0298126 0.211666 -0.0782537
0.030314 0.212164 -0.0782872
0.0298211 0.213193 -0.0778427
0.029824 0.214191 -0.0779015
0.0298268 0.215189 -0.0779602
0.0298297 0.216188 -0.0780189
0.0298326 0.217186 -0.0780776
0.0298355 0.218184 -0.0781364
0.0298384 0.219182 -0.0781951
0.0298412 0.220181 -0.0782538
0.0303399 0.221148 -0.0788157
0.0298441 0.221179 -0.0783126
0.0298414 0.221649 -0.078841
0.029807 0.211138 -0.0787235
0.0298014 0.210609 -0.0791933
0.0298331 0.22159 -0.0798393
0.0297931 0.21055 -0.0801915
0.0298247 0.221531 -0.0808375
0.0297848 0.210492 -0.0811897
0.0298164 0.221473 -0.0818358
0.0297792 0.209963 -0.0816595
0.0297736 0.209435 -0.0821293
0.030275 0.209932 -0.0821627
0.0298081 0.221414 -0.082834
0.0302667 0.209873 -0.0831609
0.0297653 0.209376 -0.0831275
0.0302983 0.220854 -0.083807
0.0297998 0.221355 -0.0838322
0.0296791 0.180896 -0.0819528
0.0296735 0.180367 -0.0824226
0.0301749 0.180865 -0.082456
0.0301778 0.181863 -0.0825147
0.029682 0.181894 -0.0820115
0.0301807 0.182861 -0.0825735
0.0296848 0.182893 -0.0820703
0.0301835 0.18386 -0.0826322
0.0296877 0.183891 -0.082129
0.0301864 0.184858 -0.0826909
0.0296906 0.184889 -0.0821877
0.0301893 0.185856 -0.0827497
0.0296935 0.185887 -0.0822465
0.0301922 0.186855 -0.0828084
0.0296963 0.186886 -0.0823052
0.0296936 0.187355 -0.0828337
0.0302584 0.209815 -0.0841592
0.0297569 0.209317 -0.0841257
0.0302871 0.219797 -0.0847465
0.0297886 0.220298 -0.0847718
0.0297942 0.220827 -0.084302
0.0296679 0.179839 -0.0828923
0.0296623 0.179311 -0.0833621
0.0301637 0.179808 -0.0833955
0.0301666 0.180806 -0.0834542
0.0301695 0.181805 -0.083513
0.0301723 0.182803 -0.0835717
0.0301752 0.183801 -0.0836304
0.0301838 0.186796 -0.0838066
0.0296909 0.187825 -0.0833622
0.0301867 0.187794 -0.0838654
0.0301896 0.188792 -0.0839241
0.0296938 0.188823 -0.0834209
0.0301925 0.189791 -0.0839828
0.0296967 0.189822 -0.0834796
0.0296939 0.190291 -0.0840081
0.03025 0.209756 -0.0851574
0.0297486 0.209259 -0.085124
0.0297745 0.218243 -0.0856525
0.0297801 0.218772 -0.0851828
0.029783 0.21977 -0.0852415
0.0296567 0.178782 -0.0838318
0.0296511 0.178254 -0.0843016
0.0301525 0.178751 -0.084335
0.0301554 0.179749 -0.0843938
0.0301813 0.188734 -0.0849223
0.0301842 0.189732 -0.0849811
0.0296912 0.190761 -0.0845366
0.030187 0.19073 -0.0850398
0.0296885 0.191231 -0.0850651
0.0297459 0.209728 -0.0856525
0.0297432 0.210198 -0.0861809
0.0297633 0.217186 -0.0865921
0.0297689 0.217715 -0.0861223
0.0301442 0.178692 -0.0853333
0.0296428 0.178195 -0.0852998
0.0301758 0.189673 -0.0859793
0.0301787 0.190672 -0.086038
0.0296858 0.191701 -0.0855936
0.0301816 0.19167 -0.0860968
0.0296831 0.192171 -0.0861221
0.0302363 0.210637 -0.0872126
0.0297349 0.210139 -0.0871792
0.0297493 0.215131 -0.0874728
0.0297548 0.215659 -0.0870031
0.0302507 0.215628 -0.0875063
0.0297577 0.216658 -0.0870618
0.02964 0.178665 -0.0858283
0.0296373 0.179134 -0.0863568
0.0301387 0.179632 -0.0863902
0.0301704 0.190613 -0.0870363
0.0301733 0.191611 -0.087095
0.0296747 0.192112 -0.0871203
0.0297321 0.210609 -0.0877077
0.029735 0.211608 -0.0877664
0.0297379 0.212606 -0.0878251
0.0297408 0.213604 -0.0878839
0.0297437 0.214602 -0.0879426
0.0296346 0.179604 -0.0868853
0.0296375 0.180602 -0.086944
0.0296348 0.181072 -0.0874725
0.0301621 0.190554 -0.0880345
0.030165 0.191552 -0.0880932
0.0296664 0.192053 -0.0881185
0.029632 0.181542 -0.088001
0.0296349 0.18254 -0.0880597
0.0296378 0.183539 -0.0881185
0.0296351 0.184008 -0.0886469
0.0301538 0.190495 -0.0890327
0.0301566 0.191494 -0.0890915
0.0296581 0.191995 -0.0891168
0.0296324 0.184478 -0.0891754
0.0296352 0.185476 -0.0892342
0.0296381 0.186475 -0.0892929
0.029641 0.187473 -0.0893516
0.0296383 0.187943 -0.0898801
0.0301397 0.18844 -0.0899135
0.0301426 0.189438 -0.0899723
0.0301454 0.190437 -0.090031
0.0301483 0.191435 -0.0900897
0.0296498 0.191936 -0.090115
0.0296356 0.188413 -0.0904086
0.0296384 0.189411 -0.0904673
0.0296413 0.190409 -0.090526
0.0296442 0.191407 -0.0905848
0.0288294 0.213255 -0.0768363
0.0288238 0.212726 -0.0773061
0.0293253 0.213224 -0.0773395
0.0293281 0.214222 -0.0773983
0.0288323 0.214253 -0.0768951
0.029331 0.21522 -0.077457
0.0288352 0.215251 -0.0769538
0.0293339 0.216219 -0.0775157
0.0288381 0.21625 -0.0770125
0.0293368 0.217217 -0.0775745
0.028841 0.217248 -0.0770713
0.0293397 0.218215 -0.0776332
0.0288438 0.218246 -0.07713
0.0293425 0.219213 -0.0776919
0.0288467 0.219245 -0.0771887
0.0293454 0.220212 -0.0777506
0.0288496 0.220243 -0.0772475
0.0288469 0.220713 -0.0777759
0.0288154 0.2112 -0.0777171
0.0288098 0.210671 -0.0781869
0.0293112 0.211169 -0.0782203
0.0288182 0.212198 -0.0777759
0.0288441 0.221182 -0.0783044
0.0288414 0.221652 -0.0788329
0.0288042 0.210143 -0.0786566
0.0287986 0.209614 -0.0791264
0.0293 0.210112 -0.0791598
0.0293345 0.222091 -0.0798646
0.0288387 0.222122 -0.0793614
0.028836 0.222592 -0.0798899
0.0292917 0.210053 -0.0801581
0.0287903 0.209555 -0.0801246
0.0293262 0.222032 -0.0808628
0.0288277 0.222533 -0.0808881
0.0292834 0.209994 -0.0811563
0.0287819 0.209497 -0.0811229
0.0293179 0.221973 -0.0818611
0.0288193 0.222474 -0.0818864
0.0286986 0.182015 -0.0800069
0.028693 0.181487 -0.0804767
0.0291945 0.181984 -0.0805101
0.0291973 0.182982 -0.0805689
0.0287015 0.183013 -0.0800657
0.0292002 0.183981 -0.0806276
0.0287044 0.184012 -0.0801244
0.0292031 0.184979 -0.0806863
0.0287073 0.18501 -0.0801831
0.029206 0.185977 -0.080745
0.0287101 0.186008 -0.0802419
0.0292088 0.186975 -0.0808038
0.028713 0.187006 -0.0803006
0.0287103 0.187476 -0.0808291
0.0287736 0.209438 -0.0821211
0.0293096 0.221915 -0.0828593
0.028811 0.222416 -0.0828846
0.0286874 0.180958 -0.0809464
0.0286818 0.18043 -0.0814162
0.0291833 0.180927 -0.0814496
0.0291861 0.181925 -0.0815084
0.029189 0.182924 -0.0815671
0.0291919 0.183922 -0.0816258
0.0291948 0.18492 -0.0816846
0.0291976 0.185918 -0.0817433
0.0292005 0.186917 -0.081802
0.0287076 0.187946 -0.0813576
0.0292034 0.187915 -0.0818607
0.0292063 0.188913 -0.0819195
0.0287105 0.188944 -0.0814163
0.0292092 0.189911 -0.0819782
0.0287133 0.189942 -0.081475
0.0287106 0.190412 -0.0820035
0.0287653 0.209379 -0.0831194
0.0287998 0.221359 -0.0838241
0.0288054 0.221887 -0.0833544
0.0286734 0.178903 -0.0818272
0.0286678 0.178374 -0.082297
0.0291692 0.178872 -0.0823304
0.0291721 0.17987 -0.0823891
0.0286762 0.179901 -0.081886
0.0291951 0.187856 -0.082859
0.029198 0.188854 -0.0829177
0.0292008 0.189853 -0.0829764
0.0287079 0.190882 -0.082532
0.0292037 0.190851 -0.0830352
0.0287052 0.191352 -0.0830605
0.028757 0.209321 -0.0841176
0.0292901 0.220799 -0.0847971
0.0287915 0.2213 -0.0848224
0.0286593 0.176848 -0.082708
0.0286537 0.176319 -0.0831778
0.0291551 0.176817 -0.0832112
0.029158 0.177815 -0.0832699
0.0286622 0.177846 -0.0827667
0.0291609 0.178813 -0.0833287
0.0291954 0.190792 -0.0840334
0.0287025 0.191822 -0.083589
0.0291983 0.191791 -0.0840921
0.0286997 0.192291 -0.0841174