<VTKFile type="UnstructuredGrid" version="0.1" byte_order="BigEndian">
  <UnstructuredGrid>
    <Piece NumberOfPoints="12286" NumberOfCells="24572">
      <PointData>
        <DataArray type="Float64" Name="position" NumberOfComponents="3" format="ascii">
0.0540195 -0.130307 -0.953988
0.0540368 -0.130841 -0.954452
0.0550198 -0.130309 -0.954488
0.0549868 -0.129312 -0.954557
0.0539864 -0.12931 -0.954058
0.0539707 -0.128847 -0.954592
0.0540541 -0.131374 -0.954916
0.0540714 -0.131908 -0.95538
0.0550544 -0.131376 -0.955415
0.0550214 -0.130379 -0.955485
0.0549883 -0.129382 -0.955555
0.0539722 -0.128917 -0.955589
0.0550559 -0.131446 -0.956413
0.0540729 -0.131978 -0.956377
0.0550229 -0.130449 -0.956483
0.0549898 -0.129452 -0.956553
0.0539737 -0.128987 -0.956587
0.0550575 -0.131516 -0.95741
0.0540744 -0.132047 -0.957375
0.0550244 -0.130519 -0.95748
0.0549913 -0.129522 -0.95755
0.0539752 -0.129056 -0.957584
0.055059 -0.131586 -0.958408
0.0540759 -0.132117 -0.958372
0.0550259 -0.130589 -0.958478
0.0549928 -0.129592 -0.958548
0.0539767 -0.129126 -0.958582
0.0550605 -0.131656 -0.959405
0.0540774 -0.132187 -0.95937
0.0550274 -0.130659 -0.959475
0.0549943 -0.129662 -0.959545
0.0539782 -0.129196 -0.959579
0.0540616 -0.131724 -0.959903
0.0540459 -0.13126 -0.960437
0.0550289 -0.130728 -0.960473
0.0549959 -0.129731 -0.960543
0.0539797 -0.129266 -0.960577
0.0540301 -0.130796 -0.960971
0.053997 -0.129799 -0.961041
0.0520518 -0.131301 -0.952919
0.0520691 -0.131834 -0.953383
0.0530522 -0.131303 -0.953419
0.0530191 -0.130306 -0.953488
0.0520188 -0.130304 -0.952989
0.0529861 -0.129309 -0.953558
0.0519857 -0.129307 -0.953059
0.0519699 -0.128843 -0.953592
0.0520864 -0.132368 -0.953847
0.0521037 -0.132901 -0.95431
0.0530868 -0.132369 -0.954346
0.0530537 -0.131372 -0.954416
0.0529545 -0.128381 -0.954626
0.0519542 -0.12838 -0.954126
0.0519384 -0.127916 -0.95466
0.0530883 -0.132439 -0.955344
0.0521052 -0.132971 -0.955308
0.052956 -0.128451 -0.955623
0.0519399 -0.127986 -0.955657
0.0530898 -0.132509 -0.956341
0.0521067 -0.133041 -0.956306
0.0529575 -0.128521 -0.956621
0.0519414 -0.128056 -0.956655
0.0530913 -0.132579 -0.957339
0.0521082 -0.133111 -0.957303
0.0529591 -0.128591 -0.957618
0.0519429 -0.128126 -0.957653
0.0530928 -0.132649 -0.958336
0.0521098 -0.133181 -0.958301
0.0529606 -0.128661 -0.958616
0.0519444 -0.128195 -0.95865
0.052094 -0.132717 -0.958834
0.0520782 -0.132253 -0.959368
0.051979 -0.129262 -0.959578
0.0519617 -0.128729 -0.959114
0.0520624 -0.13179 -0.959902
0.0520467 -0.131326 -0.960436
0.0519805 -0.129332 -0.960575
0.0520309 -0.130863 -0.960969
0.0519978 -0.129866 -0.961039
0.0500496 -0.131227 -0.950922
0.0500669 -0.131761 -0.951386
0.05105 -0.131229 -0.951422
0.0510169 -0.130232 -0.951492
0.0500166 -0.13023 -0.950992
0.0500008 -0.129767 -0.951526
0.0500842 -0.132294 -0.95185
0.0501015 -0.132827 -0.952314
0.0510846 -0.132296 -0.952349
0.0510515 -0.131299 -0.952419
0.0510184 -0.130302 -0.952489
0.049985 -0.129303 -0.95206
0.0509854 -0.129305 -0.952559
0.0499692 -0.128839 -0.952593
0.0510861 -0.132366 -0.953347
0.050103 -0.132897 -0.953311
0.0499707 -0.128909 -0.953591
0.0501045 -0.132967 -0.954309
0.0509553 -0.128448 -0.954624
0.0499722 -0.128979 -0.954588
0.050106 -0.133037 -0.955306
0.0509568 -0.128517 -0.955622
0.0499738 -0.129049 -0.955586
0.0510906 -0.132575 -0.95634
0.0500902 -0.132574 -0.95584
0.0500745 -0.13211 -0.956374
0.0509583 -0.128587 -0.956619
0.0499753 -0.129119 -0.956584
0.0510921 -0.132645 -0.957337
0.0500587 -0.131646 -0.956908
0.0510591 -0.131648 -0.957407
0.0500429 -0.131183 -0.957441
0.0509599 -0.128657 -0.957617
0.0499768 -0.129189 -0.957581
0.0500933 -0.132713 -0.957835
0.0501106 -0.133247 -0.958299
0.0500602 -0.131716 -0.957905
0.0509614 -0.128727 -0.958614
0.0499783 -0.129259 -0.958579
0.0510951 -0.132785 -0.959332
0.0501121 -0.133317 -0.959297
0.0499798 -0.129329 -0.959576
0.0500963 -0.132853 -0.95983
0.0500805 -0.132389 -0.960364
0.0510636 -0.131858 -0.9604
0.0499813 -0.129398 -0.960574
0.0500647 -0.131926 -0.960898
0.0500317 -0.130929 -0.960968
0.0499986 -0.129932 -0.961038
0.0480504 -0.131293 -0.950921
0.0480677 -0.131827 -0.951384
0.0480346 -0.13083 -0.951454
0.0490177 -0.130298 -0.95149
0.048085 -0.13236 -0.951848
0.0481023 -0.132894 -0.952312
0.0480189 -0.130366 -0.951988
0.0480031 -0.129903 -0.952522
0.0489862 -0.129371 -0.952558
0.0481196 -0.133427 -0.952776
0.0481369 -0.133961 -0.95324
0.0491199 -0.133429 -0.953276
0.0479873 -0.129439 -0.953056
0.0479715 -0.128975 -0.953589
0.0491214 -0.133499 -0.954273
0.0481384 -0.13403 -0.954237
0.0479731 -0.129045 -0.954587
0.049123 -0.133569 -0.955271
0.0481399 -0.1341 -0.955235
0.0479746 -0.129115 -0.955584
0.0491245 -0.133639 -0.956268
0.0481414 -0.13417 -0.956232
0.0490914 -0.132642 -0.956338
0.0479761 -0.129185 -0.956582
0.049126 -0.133708 -0.957266
0.0481429 -0.13424 -0.95723
0.0490929 -0.132711 -0.957336
0.0490599 -0.131714 -0.957406
0.0479776 -0.129255 -0.957579
0.0491275 -0.133778 -0.958263
0.0481444 -0.13431 -0.958228
0.0479791 -0.129325 -0.958577
0.049129 -0.133848 -0.959261
0.0481459 -0.13438 -0.959225
0.0479806 -0.129395 -0.959575
0.0491305 -0.133918 -0.960258
0.0481475 -0.13445 -0.960223
0.0490975 -0.132921 -0.960328
0.0479821 -0.129465 -0.960572
0.0481317 -0.133986 -0.960756
0.0481159 -0.133523 -0.96129
0.049099 -0.132991 -0.961326
0.0490659 -0.131994 -0.961396
0.0490328 -0.130997 -0.961466
0.0480167 -0.130532 -0.9615
0.0479994 -0.129998 -0.961036
0.0481001 -0.133059 -0.961824
0.0480671 -0.132062 -0.961894
0.048034 -0.131065 -0.961964
0.0470516 -0.131361 -0.951419
0.0460858 -0.132426 -0.951847
0.0461031 -0.13296 -0.952311
0.0460527 -0.131429 -0.951917
0.046037 -0.130966 -0.95245
0.04702 -0.130434 -0.952486
0.0461204 -0.133493 -0.952774
0.0461377 -0.134027 -0.953238
0.0460212 -0.130502 -0.952984
0.0460054 -0.130039 -0.953518
0.0469885 -0.129507 -0.953554
0.0461392 -0.134097 -0.954236
0.0459896 -0.129575 -0.954051
0.0459738 -0.129112 -0.954585
0.0461407 -0.134166 -0.955233
0.0459754 -0.129181 -0.955583
0.0461422 -0.134236 -0.956231
0.0460099 -0.130248 -0.95651
0.0459927 -0.129715 -0.956047
0.046993 -0.129717 -0.956546
0.0461437 -0.134306 -0.957228
0.0469945 -0.129787 -0.957544
0.0460115 -0.130318 -0.957508
0.0461452 -0.134376 -0.958226
0.046996 -0.129856 -0.958541
0.046013 -0.130388 -0.958506
0.0461467 -0.134446 -0.959224
0.0469975 -0.129926 -0.959539
0.0460145 -0.130458 -0.959503
0.0461483 -0.134516 -0.960221
0.0469991 -0.129996 -0.960536
0.046016 -0.130528 -0.960501
0.0461325 -0.134052 -0.960755
0.0461167 -0.133589 -0.961289
0.0460506 -0.131595 -0.961428
0.0460333 -0.131061 -0.960964
0.0470336 -0.131063 -0.961464
0.0461009 -0.133125 -0.961822
0.0460679 -0.132128 -0.961892
0.0441181 -0.13342 -0.950778
0.0441354 -0.133953 -0.951241
0.0451185 -0.133422 -0.951277
0.0450854 -0.132425 -0.951347
0.0440851 -0.132423 -0.950848
0.0440693 -0.131959 -0.951381
0.04512 -0.133491 -0.952275
0.0441369 -0.134023 -0.952239
0.0440535 -0.131496 -0.951915
0.0440378 -0.131032 -0.952449
0.0441542 -0.134556 -0.952703
0.0441715 -0.13509 -0.953167
0.0451546 -0.134558 -0.953202
0.044022 -0.130568 -0.952982
0.0440062 -0.130105 -0.953516
0.0451561 -0.134628 -0.9542
0.044173 -0.13516 -0.954164
0.0449908 -0.129643 -0.954549
0.0440077 -0.130175 -0.954514
0.0451576 -0.134698 -0.955198
0.0441746 -0.13523 -0.955162
0.0449923 -0.129713 -0.955547
0.0440092 -0.130245 -0.955511
0.0451591 -0.134768 -0.956195
0.0441761 -0.1353 -0.956159
0.0440107 -0.130314 -0.956509
0.0451606 -0.134838 -0.957193
0.0441776 -0.135369 -0.957157
0.0440123 -0.130384 -0.957506
0.0451622 -0.134908 -0.95819
0.0441791 -0.135439 -0.958154
0.0440138 -0.130454 -0.958504
0.0451637 -0.134978 -0.959188
0.0441806 -0.135509 -0.959152
0.0440153 -0.130524 -0.959501
0.0441648 -0.135046 -0.959686
0.0441491 -0.134582 -0.960219
0.0440829 -0.132588 -0.960359
0.0440656 -0.132055 -0.959895
0.045066 -0.132056 -0.960395
0.0440326 -0.131058 -0.959965
0.0450329 -0.131059 -0.960465
0.0441333 -0.134118 -0.960753
0.0441002 -0.133121 -0.960823
0.0451006 -0.133123 -0.961323
0.0450675 -0.132126 -0.961393
0.0421189 -0.133486 -0.950776
0.0421362 -0.134019 -0.95124
0.0421032 -0.133022 -0.95131
0.0430862 -0.132491 -0.951346
0.0421535 -0.134553 -0.951704
0.0421708 -0.135086 -0.952168
0.0431539 -0.134555 -0.952203
0.0420874 -0.132559 -0.951843
0.0420543 -0.131562 -0.951913
0.0420386 -0.131098 -0.952447
0.0421723 -0.135156 -0.953165
0.0430231 -0.130636 -0.95348
0.0420401 -0.131168 -0.953445
0.0421738 -0.135226 -0.954163
0.0420243 -0.130704 -0.953978
0.0420085 -0.130241 -0.954512
0.0421754 -0.135296 -0.95516
0.04201 -0.130311 -0.95551
0.0421769 -0.135366 -0.956158
0.0420115 -0.130381 -0.956507
0.0421784 -0.135436 -0.957155
0.0420131 -0.130451 -0.957505
0.0421799 -0.135505 -0.958153
0.0420146 -0.13052 -0.958502
0.0421814 -0.135575 -0.95915
0.0420491 -0.131587 -0.95943
0.0420319 -0.131054 -0.958966
0.0430322 -0.131056 -0.959466
0.043166 -0.135114 -0.960184
0.0421829 -0.135645 -0.960148
0.0420837 -0.132654 -0.960358
0.0420664 -0.132121 -0.959894
0.0421671 -0.135182 -0.960682
0.0421514 -0.134718 -0.961215
0.0431344 -0.134186 -0.961251
0.0421183 -0.133721 -0.961285
0.042101 -0.133188 -0.960821
0.0421356 -0.134255 -0.961749
0.0401859 -0.135546 -0.950635
0.0402032 -0.13608 -0.951099
0.0411862 -0.135548 -0.951134
0.0411532 -0.134551 -0.951204
0.0401528 -0.134549 -0.950705
0.0401197 -0.133552 -0.950774
0.040104 -0.133089 -0.951308
0.0411877 -0.135618 -0.952132
0.0402047 -0.136149 -0.952096
0.0400882 -0.132625 -0.951842
0.0400724 -0.132161 -0.952376
0.0410555 -0.13163 -0.952411
0.040222 -0.136683 -0.95256
0.0402393 -0.137216 -0.953024
0.0412223 -0.136685 -0.953059
0.0411893 -0.135688 -0.953129
0.0400566 -0.131698 -0.952909
0.0400236 -0.130701 -0.952979
0.0410239 -0.130703 -0.953479
0.0400078 -0.130237 -0.953513
0.0412238 -0.136755 -0.954057
0.0402408 -0.137286 -0.954021
0.0411908 -0.135758 -0.954127
0.0400093 -0.130307 -0.954511
0.0412253 -0.136824 -0.955055
0.0402423 -0.137356 -0.955019
0.0411923 -0.135827 -0.955124
0.0400108 -0.130377 -0.955508
0.0412269 -0.136894 -0.956052
0.0402438 -0.137426 -0.956016
0.0411938 -0.135897 -0.956122
0.0400123 -0.130447 -0.956506
0.0412284 -0.136964 -0.95705
0.0402453 -0.137496 -0.957014
0.0411953 -0.135967 -0.95712
0.0400139 -0.130517 -0.957503
0.0402295 -0.137032 -0.957548
0.0402138 -0.136569 -0.958081
0.0411968 -0.136037 -0.958117
0.0400154 -0.130587 -0.958501
0.0411983 -0.136107 -0.959115
0.0402153 -0.136639 -0.959079
0.041033 -0.131122 -0.959464
0.0400169 -0.130657 -0.959498
0.0411998 -0.136177 -0.960112
0.0402168 -0.136708 -0.960076
0.0410676 -0.132189 -0.960392
0.0400515 -0.131723 -0.960426
0.0400342 -0.13119 -0.959962
0.0412014 -0.136247 -0.96111
0.0402183 -0.136778 -0.961074
0.0411683 -0.13525 -0.96118
0.0411022 -0.133256 -0.961319
0.040086 -0.13279 -0.961354
0.0400687 -0.132257 -0.96089
0.0402025 -0.136315 -0.961608
0.0401695 -0.135318 -0.961678
0.0401364 -0.134321 -0.961748
0.0401033 -0.133324 -0.961817
0.0389772 -0.159401 -0.946961
0.0389945 -0.159934 -0.947424
0.0399776 -0.159403 -0.94746
0.0389614 -0.158937 -0.947494
0.0390449 -0.161465 -0.947818
0.0390621 -0.161998 -0.948282
0.0400452 -0.161466 -0.948318
0.0400121 -0.160469 -0.948388
0.0390118 -0.160468 -0.947888
0.0399791 -0.159472 -0.948458
0.0389457 -0.158474 -0.948028
0.039946 -0.158475 -0.948528
0.0389299 -0.15801 -0.948562
0.0400467 -0.161536 -0.949316
0.0390637 -0.162068 -0.94928
0.0400137 -0.160539 -0.949385
0.0399806 -0.159542 -0.949455
0.0399475 -0.158545 -0.949525
0.0389314 -0.15808 -0.949559
0.0382197 -0.136609 -0.950563
0.038237 -0.137143 -0.951027
0.0392201 -0.136611 -0.951063
0.0381867 -0.135612 -0.950633
0.0381536 -0.134615 -0.950703
0.0381378 -0.134152 -0.951237
0.0391209 -0.13362 -0.951272
0.0390479 -0.161604 -0.949813
0.0390321 -0.161141 -0.950347
0.0400152 -0.160609 -0.950383
0.0399821 -0.159612 -0.950453
0.039949 -0.158615 -0.950523
0.0389329 -0.15815 -0.950557
0.0392216 -0.136681 -0.95206
0.0382385 -0.137213 -0.952025
0.0381221 -0.133688 -0.95177
0.038089 -0.132691 -0.95184
0.0390563 -0.131696 -0.95241
0.0380559 -0.131694 -0.95191
0.0380402 -0.131231 -0.952444
0.0390163 -0.160677 -0.950881
0.0390005 -0.160214 -0.951415
0.0399836 -0.159682 -0.95145
0.0389502 -0.158683 -0.951021
0.0389675 -0.159217 -0.951485
0.0382558 -0.137746 -0.952488
0.0382731 -0.138279 -0.952952
0.0392562 -0.137748 -0.952988
0.0380244 -0.130767 -0.952978
0.0380086 -0.130303 -0.953511
0.0389848 -0.15975 -0.951948
0.0392577 -0.137818 -0.953986
0.0382746 -0.138349 -0.95395
0.0389932 -0.129842 -0.954545
0.0379928 -0.12984 -0.954045
0.0379771 -0.129376 -0.954579
0.0392592 -0.137888 -0.954983
0.0382761 -0.138419 -0.954947
0.0389947 -0.129912 -0.955542
0.0379786 -0.129446 -0.955576
0.0392607 -0.137958 -0.955981
0.0382777 -0.138489 -0.955945
0.0389962 -0.129981 -0.95654
0.0379801 -0.129516 -0.956574
0.0392622 -0.138027 -0.956978
0.0382792 -0.138559 -0.956942
0.0389977 -0.130051 -0.957537
0.0379816 -0.129586 -0.957571
0.0392638 -0.138097 -0.957976
0.0382807 -0.138629 -0.95794
0.0392307 -0.1371 -0.958046
0.0389992 -0.130121 -0.958535
0.0379831 -0.129656 -0.958569
0.0392653 -0.138167 -0.958973
0.0382822 -0.138699 -0.958938
0.0392322 -0.13717 -0.959043
0.0380177 -0.130723 -0.959497
0.0380004 -0.130189 -0.959033
0.0392668 -0.138237 -0.959971
0.0382837 -0.138769 -0.959935
0.0392337 -0.13724 -0.960041
0.0390353 -0.131258 -0.96046
0.0380192 -0.130793 -0.960494
0.0382679 -0.138305 -0.960469
0.0382522 -0.137841 -0.961003
0.0392352 -0.13731 -0.961038
0.0390699 -0.132325 -0.961388
0.0380538 -0.131859 -0.961422
0.0380365 -0.131326 -0.960958
0.0392367 -0.13738 -0.962036
0.0382537 -0.137911 -0.962
0.0392037 -0.136383 -0.962106
0.0391706 -0.135386 -0.962176
0.0391375 -0.134389 -0.962246
0.0381214 -0.133923 -0.96228
0.0381041 -0.13339 -0.961816
0.0380711 -0.132393 -0.961886
0.0382379 -0.137448 -0.962534
0.0382048 -0.136451 -0.962604
0.0381718 -0.135454 -0.962674
0.0381387 -0.134457 -0.962743
0.0372665 -0.168021 -0.940345
0.0372838 -0.168554 -0.940809
0.0382669 -0.168022 -0.940844
0.0382338 -0.167025 -0.940914
0.0372334 -0.167024 -0.940415
0.0372177 -0.16656 -0.940948
0.0373011 -0.169088 -0.941272
0.0373184 -0.169621 -0.941736
0.0383014 -0.169089 -0.941772
0.0382684 -0.168092 -0.941842
0.0382353 -0.167095 -0.941912
0.0372019 -0.166097 -0.941482
0.0382023 -0.166098 -0.941982
0.0371861 -0.165633 -0.942016
0.0373357 -0.170154 -0.9422
0.037353 -0.170688 -0.942664
0.038336 -0.170156 -0.9427
0.038303 -0.169159 -0.942769
0.0382699 -0.168162 -0.942839
0.0382368 -0.167165 -0.942909
0.0382038 -0.166168 -0.942979
0.0371876 -0.165703 -0.943013
0.0383375 -0.170226 -0.943697
0.0373545 -0.170758 -0.943661
0.0383045 -0.169229 -0.943767
0.0382714 -0.168232 -0.943837
0.0382383 -0.167235 -0.943907
0.0372049 -0.166236 -0.943477
0.0372222 -0.16677 -0.943941
0.0373387 -0.170294 -0.944195
0.0373229 -0.169831 -0.944729
0.038306 -0.169299 -0.944765
0.0382729 -0.168302 -0.944834
0.0382399 -0.167305 -0.944904
0.0372064 -0.166306 -0.944475
0.0382068 -0.166308 -0.944974
0.0371907 -0.165843 -0.945008
0.0373071 -0.169367 -0.945263
0.0372914 -0.168903 -0.945796
0.0382744 -0.168372 -0.945832
0.0382414 -0.167375 -0.945902
0.0382083 -0.166378 -0.945972
0.0371749 -0.165379 -0.945542
0.0381752 -0.165381 -0.946042
0.0381422 -0.164384 -0.946112
0.0371418 -0.164382 -0.945612
0.0381091 -0.163387 -0.946181
0.0371088 -0.163385 -0.945682
0.038076 -0.16239 -0.946251
0.0370757 -0.162388 -0.945752
0.038043 -0.161393 -0.946321
0.0370426 -0.161391 -0.945822
0.0370268 -0.160927 -0.946355
0.0372756 -0.16844 -0.94633
0.0372598 -0.167976 -0.946864
0.0382429 -0.167445 -0.946899
0.0382098 -0.166448 -0.946969
0.0381768 -0.165451 -0.947039
0.0381437 -0.164454 -0.947109
0.0381106 -0.163457 -0.947179
0.0380776 -0.16246 -0.947249
0.0380445 -0.161463 -0.947319
0.0370111 -0.160464 -0.946889
0.0380114 -0.160466 -0.947389
0.036978 -0.159467 -0.946959
0.0379453 -0.158472 -0.947528
0.0369449 -0.15847 -0.947029
0.0379122 -0.157475 -0.947598
0.0369119 -0.157473 -0.947099
0.0378792 -0.156478 -0.947668
0.0368788 -0.156476 -0.947169
0.036863 -0.156012 -0.947702
0.0382444 -0.167515 -0.947897
0.0372613 -0.168046 -0.947861
0.0382113 -0.166518 -0.947967
0.0381783 -0.165521 -0.948037
0.0381452 -0.164524 -0.948107
0.0381121 -0.163527 -0.948177
0.0380791 -0.16253 -0.948246
0.0379137 -0.157545 -0.948596
0.0378807 -0.156548 -0.948666
0.0368473 -0.155549 -0.948236
0.0378476 -0.155551 -0.948736
0.0378146 -0.154554 -0.948806
0.0368142 -0.154552 -0.948306
0.0377815 -0.153557 -0.948875
0.0367811 -0.153555 -0.948376
0.0377484 -0.15256 -0.948945
0.0367481 -0.152558 -0.948446
0.0377154 -0.151563 -0.949015
0.036715 -0.151561 -0.948516
0.0366992 -0.151097 -0.949049
0.0372456 -0.167583 -0.948395
0.0372298 -0.167119 -0.948929
0.0382128 -0.166588 -0.948964
0.0381798 -0.165591 -0.949034
0.0381467 -0.164593 -0.949104
0.0381136 -0.163596 -0.949174
0.0380806 -0.162599 -0.949244
0.0379153 -0.157614 -0.949593
0.0378822 -0.156617 -0.949663
0.0378491 -0.15562 -0.949733
0.0378161 -0.154623 -0.949803
0.037783 -0.153626 -0.949873
0.0377499 -0.152629 -0.949943
0.0377169 -0.151632 -0.950013
0.0366834 -0.150634 -0.949583
0.0376838 -0.150635 -0.950083
0.0366677 -0.15017 -0.950117
0.0362536 -0.137672 -0.950492
0.0362709 -0.138206 -0.950956
0.037254 -0.137674 -0.950991
0.0362205 -0.136675 -0.950562
0.0361875 -0.135678 -0.950631
0.0361717 -0.135215 -0.951165
0.0371548 -0.134683 -0.951201
0.037214 -0.166656 -0.949462
0.0371982 -0.166192 -0.949996
0.0381813 -0.16566 -0.950032
0.0381482 -0.164663 -0.950102
0.0381152 -0.163666 -0.950172
0.0380821 -0.162669 -0.950242
0.038049 -0.161672 -0.950311
0.0379168 -0.157684 -0.950591
0.0378837 -0.156687 -0.950661
0.0378506 -0.15569 -0.950731
0.0378176 -0.154693 -0.950801
0.0377845 -0.153696 -0.950871
0.0377514 -0.152699 -0.95094
0.0377184 -0.151702 -0.95101
0.0376853 -0.150705 -0.95108
0.0366692 -0.15024 -0.951114
0.0362882 -0.138739 -0.951419
0.0363055 -0.139273 -0.951883
0.0372885 -0.138741 -0.951919
0.0372555 -0.137744 -0.951989
0.0361559 -0.134751 -0.951699
0.0361229 -0.133754 -0.951769
0.0360898 -0.132757 -0.951839
0.0360567 -0.13176 -0.951909
0.037024 -0.130765 -0.952478
0.0360237 -0.130763 -0.951978
0.0360079 -0.1303 -0.952512
0.0381828 -0.16573 -0.951029
0.0371997 -0.166262 -0.950994
0.0381497 -0.164733 -0.951099
0.0381167 -0.163736 -0.951169
0.0380836 -0.162739 -0.951239
0.0380505 -0.161742 -0.951309
0.0380175 -0.160745 -0.951379
0.0379514 -0.158751 -0.951519
0.0379183 -0.157754 -0.951589
0.0378852 -0.156757 -0.951658
0.0378522 -0.15576 -0.951728
0.0378191 -0.154763 -0.951798
0.037786 -0.153766 -0.951868
0.037753 -0.152769 -0.951938
0.0377199 -0.151772 -0.952008
0.0376868 -0.150775 -0.952078
0.0366707 -0.15031 -0.952112
0.0372901 -0.138811 -0.952916
0.036307 -0.139343 -0.952881
0.0369925 -0.129838 -0.953545
0.0359921 -0.129836 -0.953046
0.0359763 -0.129373 -0.95358
0.037184 -0.165798 -0.951527
0.0371682 -0.165335 -0.952061
0.0381513 -0.164803 -0.952097
0.0381182 -0.163806 -0.952167
0.0380851 -0.162809 -0.952237
0.0380521 -0.161812 -0.952307
0.038019 -0.160815 -0.952376
0.0379859 -0.159818 -0.952446
0.0379529 -0.158821 -0.952516
0.0379198 -0.157824 -0.952586
0.0378867 -0.156827 -0.952656
0.0378537 -0.15583 -0.952726
0.0378206 -0.154833 -0.952796
0.0377875 -0.153836 -0.952866
0.0377545 -0.152839 -0.952936
0.0367211 -0.15184 -0.952506
0.0367383 -0.152374 -0.95297
0.036688 -0.150843 -0.952576
0.0363243 -0.139876 -0.953345
0.0363416 -0.14041 -0.953808
0.0373246 -0.139878 -0.953844
0.0372916 -0.138881 -0.953914
0.0369609 -0.128911 -0.954613
0.0359606 -0.128909 -0.954113
0.0359448 -0.128445 -0.954647
0.0381528 -0.164873 -0.953094
0.0371697 -0.165405 -0.953059
0.0381197 -0.163876 -0.953164
0.0380866 -0.162879 -0.953234
0.0380536 -0.161882 -0.953304
0.0380205 -0.160885 -0.953374
0.0379874 -0.159888 -0.953444
0.0379544 -0.158891 -0.953514
0.0379213 -0.157894 -0.953584
0.0378882 -0.156897 -0.953654
0.0378552 -0.1559 -0.953723
0.0378221 -0.154903 -0.953793
0.0377891 -0.153906 -0.953863
0.0367556 -0.152907 -0.953434
0.0367729 -0.153441 -0.953897
0.0373261 -0.139948 -0.954842
0.0363431 -0.140479 -0.954806
0.0372931 -0.138951 -0.954912
0.0369624 -0.128981 -0.95561
0.035929 -0.127982 -0.955181
0.0369294 -0.127984 -0.95568
0.0359132 -0.127518 -0.955715
0.0381543 -0.164943 -0.954092
0.0371712 -0.165474 -0.954056
0.0381212 -0.163946 -0.954162
0.0380881 -0.162949 -0.954232
0.0380551 -0.161952 -0.954302
0.038022 -0.160955 -0.954372
0.037989 -0.159958 -0.954441
0.0379559 -0.158961 -0.954511
0.0379228 -0.157964 -0.954581
0.0378898 -0.156967 -0.954651
0.0378567 -0.15597 -0.954721
0.0378236 -0.154973 -0.954791
0.0377906 -0.153976 -0.954861
0.0367744 -0.15351 -0.954895
0.0373277 -0.140018 -0.955839
0.0363446 -0.140549 -0.955804
0.0372946 -0.139021 -0.955909
0.0369639 -0.129051 -0.956608
0.0369309 -0.128054 -0.956678
0.0359147 -0.127588 -0.956712
0.0371885 -0.166008 -0.95452
0.0372058 -0.166541 -0.954984
0.0381889 -0.16601 -0.95502
0.0381558 -0.165013 -0.95509
0.0381227 -0.164016 -0.955159
0.0380897 -0.163019 -0.955229
0.0380566 -0.162022 -0.955299
0.0380235 -0.161025 -0.955369
0.0379905 -0.160028 -0.955439
0.0379574 -0.159031 -0.955509
0.0379243 -0.158034 -0.955579
0.0378913 -0.157037 -0.955649
0.0378582 -0.15604 -0.955719
0.0378251 -0.155043 -0.955788
0.0367917 -0.154044 -0.955359
0.036809 -0.154577 -0.955823
0.0363288 -0.140086 -0.956337
0.036313 -0.139622 -0.956871
0.0372961 -0.139091 -0.956907
0.0369655 -0.129121 -0.957606
0.0369324 -0.128124 -0.957675
0.0359163 -0.127658 -0.95771
0.0381904 -0.16608 -0.956017
0.0372073 -0.166611 -0.955981
0.0381573 -0.165083 -0.956087
0.0381242 -0.164086 -0.956157
0.0380912 -0.163089 -0.956227
0.0380581 -0.162092 -0.956297
0.038025 -0.161095 -0.956367
0.037992 -0.160098 -0.956437
0.0379589 -0.159101 -0.956506
0.0379259 -0.158104 -0.956576
0.0378928 -0.157107 -0.956646
0.0378597 -0.15611 -0.956716
0.0368263 -0.155111 -0.956286
0.0368436 -0.155644 -0.95675
0.0372976 -0.13916 -0.957904
0.0363145 -0.139692 -0.957869
0.036967 -0.12919 -0.958603
0.0369339 -0.128193 -0.958673
0.0359178 -0.127728 -0.958707
0.0372246 -0.167145 -0.956445
0.0372419 -0.167678 -0.956909
0.0382249 -0.167147 -0.956945
0.0381919 -0.16615 -0.957015
0.0381588 -0.165153 -0.957085
0.0381258 -0.164156 -0.957155
0.0380927 -0.163159 -0.957224
0.0380596 -0.162161 -0.957294
0.0380266 -0.161164 -0.957364
0.0379935 -0.160167 -0.957434
0.0379604 -0.15917 -0.957504
0.0379274 -0.158173 -0.957574
0.0378943 -0.157176 -0.957644
0.0378612 -0.156179 -0.957714
0.0368451 -0.155714 -0.957748
0.0372991 -0.13923 -0.958902
0.0363161 -0.139762 -0.958866
0.0370015 -0.130257 -0.959531
0.0369685 -0.12926 -0.959601
0.0369354 -0.128263 -0.959671
0.0359193 -0.127798 -0.959705
0.0382265 -0.167216 -0.957942
0.0372434 -0.167748 -0.957907
0.0381934 -0.166219 -0.958012
0.0381603 -0.165222 -0.958082
0.0381273 -0.164225 -0.958152
0.0380942 -0.163228 -0.958222
0.0380611 -0.162231 -0.958292
0.0380281 -0.161234 -0.958362
0.037995 -0.160237 -0.958432
0.0379619 -0.15924 -0.958502
0.0379289 -0.158243 -0.958571
0.0378958 -0.157246 -0.958641
0.0368624 -0.156247 -0.958212
0.0368797 -0.156781 -0.958675
0.0373006 -0.1393 -0.959899
0.0363176 -0.139832 -0.959864
0.0370031 -0.130327 -0.960528
0.03697 -0.12933 -0.960598
0.0369369 -0.128333 -0.960668
0.0359208 -0.127868 -0.960702
0.0372276 -0.167284 -0.95844
0.0372118 -0.166821 -0.958974
0.0381949 -0.166289 -0.95901
0.0381618 -0.165292 -0.95908
0.0381288 -0.164295 -0.95915
0.0380957 -0.163298 -0.95922
0.0380626 -0.162301 -0.959289
0.0380296 -0.161304 -0.959359
0.0379965 -0.160307 -0.959429
0.0379635 -0.15931 -0.959499
0.0379304 -0.158313 -0.959569
0.0378973 -0.157316 -0.959639
0.0368812 -0.156851 -0.959673
0.0363018 -0.139368 -0.960397
0.036286 -0.138905 -0.960931
0.0372691 -0.138373 -0.960967
0.0370376 -0.131394 -0.961456
0.0370046 -0.130397 -0.961526
0.0369715 -0.1294 -0.961596
0.0359381 -0.128401 -0.961166
0.0359554 -0.128935 -0.96163
0.0371961 -0.166357 -0.959508
0.037163 -0.16536 -0.959578
0.0371472 -0.164897 -0.960111
0.0381303 -0.164365 -0.960147
0.0380972 -0.163368 -0.960217
0.0380642 -0.162371 -0.960287
0.0380311 -0.161374 -0.960357
0.037998 -0.160377 -0.960427
0.037965 -0.15938 -0.960497
0.0379319 -0.158383 -0.960567
0.0378988 -0.157386 -0.960636
0.0368827 -0.156921 -0.960671
0.0372706 -0.138443 -0.961964
0.0362875 -0.138975 -0.961929
0.0371053 -0.133458 -0.962314
0.0370722 -0.132461 -0.962384
0.0360561 -0.131996 -0.962418
0.0360388 -0.131462 -0.961954
0.0360057 -0.130465 -0.962024
0.0359727 -0.129468 -0.962094
0.0371314 -0.164433 -0.960645
0.0370984 -0.163436 -0.960715
0.0370826 -0.162973 -0.961249
0.0380657 -0.162441 -0.961285
0.0380326 -0.161444 -0.961354
0.0379995 -0.160447 -0.961424
0.0379665 -0.15945 -0.961494
0.0379334 -0.158453 -0.961564
0.0379004 -0.157456 -0.961634
0.0368842 -0.156991 -0.961668
0.0362718 -0.138511 -0.962462
0.036256 -0.138047 -0.962996
0.0372391 -0.137516 -0.963032
0.037206 -0.136519 -0.963102
0.0361899 -0.136053 -0.963136
0.0361726 -0.13552 -0.962672
0.0361395 -0.134523 -0.962742
0.0361064 -0.133526 -0.962812
0.0360734 -0.132529 -0.962882
0.0370668 -0.162509 -0.961783
0.0370338 -0.161512 -0.961852
0.0370007 -0.160515 -0.961922
0.0369849 -0.160051 -0.962456
0.037968 -0.15952 -0.962492
0.0379349 -0.158523 -0.962562
0.0379019 -0.157526 -0.962632
0.0368857 -0.15706 -0.962666
0.0362402 -0.137584 -0.96353
0.0362071 -0.136587 -0.9636
0.0369691 -0.159588 -0.96299
0.0369361 -0.158591 -0.96306
0.036903 -0.157594 -0.96313
0.0362677 -0.168089 -0.940843
0.0352515 -0.167623 -0.940877
0.0352343 -0.16709 -0.940413
0.0362015 -0.166095 -0.940982
0.0352012 -0.166093 -0.940483
0.0351854 -0.165629 -0.941017
0.035335 -0.170151 -0.941201
0.0353522 -0.170684 -0.941665
0.0363353 -0.170153 -0.9417
0.0353019 -0.169154 -0.941271
0.0352688 -0.168157 -0.941341
0.03617 -0.165168 -0.94205
0.0351696 -0.165166 -0.94155
0.0351539 -0.164702 -0.942084
0.0353538 -0.170754 -0.942662
0.0361715 -0.165237 -0.943047
0.0351381 -0.164239 -0.942618
0.0361384 -0.16424 -0.943117
0.0351223 -0.163775 -0.943151
0.0353553 -0.170824 -0.94366
0.0362061 -0.166304 -0.943975
0.036173 -0.165307 -0.944045
0.0361399 -0.16431 -0.944115
0.0351065 -0.163311 -0.943685
0.0361069 -0.163313 -0.944185
0.0350908 -0.162848 -0.944219
0.0363399 -0.170362 -0.944693
0.0353568 -0.170894 -0.944657
0.0361745 -0.165377 -0.945043
0.0361415 -0.16438 -0.945112
0.0361084 -0.163383 -0.945182
0.035075 -0.162384 -0.944753
0.0360753 -0.162386 -0.945252
0.0350592 -0.161921 -0.945286
0.0363414 -0.170432 -0.945691
0.0353583 -0.170964 -0.945655
0.0363083 -0.169435 -0.945761
0.0350607 -0.161991 -0.946284
0.0360438 -0.161459 -0.94632
0.0363429 -0.170502 -0.946688
0.0353598 -0.171034 -0.946652
0.0363098 -0.169505 -0.946758
0.0362767 -0.168508 -0.946828
0.0350449 -0.161527 -0.946818
0.0350119 -0.16053 -0.946888
0.0349788 -0.159533 -0.946957
0.034963 -0.159069 -0.947491
0.0359461 -0.158538 -0.947527
0.035913 -0.157541 -0.947597
0.03588 -0.156544 -0.947667
0.035344 -0.17057 -0.947186
0.0353283 -0.170106 -0.94772
0.0363113 -0.169575 -0.947756
0.0362783 -0.168578 -0.947826
0.0349473 -0.158606 -0.948025
0.0349142 -0.157609 -0.948095
0.0358815 -0.156614 -0.948664
0.0348984 -0.157145 -0.948628
0.0358484 -0.155617 -0.948734
0.0358154 -0.15462 -0.948804
0.0357823 -0.153623 -0.948874
0.0357492 -0.152626 -0.948944
0.0357162 -0.151629 -0.949014
0.0346827 -0.15063 -0.948584
0.0347 -0.151163 -0.949048
0.0356831 -0.150632 -0.949084
0.03565 -0.149635 -0.949153
0.0346497 -0.149633 -0.948654
0.035617 -0.148638 -0.949223
0.0346166 -0.148636 -0.948724
0.0355839 -0.147641 -0.949293
0.0345835 -0.147639 -0.948794
0.0355508 -0.146644 -0.949363
0.0345505 -0.146642 -0.948864
0.0345347 -0.146178 -0.949397
0.034319 -0.139663 -0.949353
0.0343363 -0.140196 -0.949817
0.0353194 -0.139665 -0.949852
0.0352863 -0.138668 -0.949922
0.034286 -0.138666 -0.949423
0.0352532 -0.137671 -0.949992
0.0342529 -0.137669 -0.949493
0.0342371 -0.137205 -0.950026
0.0338231 -0.124708 -0.950401
0.0338403 -0.125241 -0.950865
0.0348234 -0.12471 -0.950901
0.0347903 -0.123713 -0.950971
0.03379 -0.123711 -0.950471
0.0347573 -0.122716 -0.95104
0.0337569 -0.122714 -0.950541
0.0347242 -0.121719 -0.95111
0.0337239 -0.121717 -0.950611
0.0337081 -0.121253 -0.951144
0.0363128 -0.169645 -0.948753
0.0353298 -0.170176 -0.948717
0.0362798 -0.168648 -0.948823
0.0362467 -0.167651 -0.948893
0.0348826 -0.156682 -0.949162
0.0358499 -0.155687 -0.949732
0.0348669 -0.156218 -0.949696
0.0348165 -0.154688 -0.949302
0.0348338 -0.155221 -0.949766
0.0347834 -0.153691 -0.949372
0.0347504 -0.152694 -0.949442
0.0347173 -0.151697 -0.949512
0.0356515 -0.149705 -0.950151
0.0356185 -0.148708 -0.950221
0.0355854 -0.147711 -0.950291
0.0355523 -0.146714 -0.950361
0.0345362 -0.146248 -0.950395
0.0343536 -0.14073 -0.95028
0.0343709 -0.141263 -0.950744
0.035354 -0.140732 -0.95078
0.0353209 -0.139735 -0.95085
0.0352878 -0.138738 -0.95092
0.0342213 -0.136742 -0.95056
0.0341883 -0.135745 -0.95063
0.0351556 -0.134749 -0.951199
0.0341552 -0.134748 -0.9507
0.0351225 -0.133752 -0.951269
0.0341221 -0.133751 -0.95077
0.0350894 -0.132755 -0.951339
0.0340891 -0.132754 -0.95084
0.0350564 -0.131758 -0.951409
0.034056 -0.131757 -0.950909
0.0350233 -0.130761 -0.951479
0.034023 -0.13076 -0.950979
0.0349902 -0.129764 -0.951549
0.0339899 -0.129763 -0.951049
0.0349572 -0.128767 -0.951619
0.0339568 -0.128766 -0.951119
0.0349241 -0.12777 -0.951689
0.0339238 -0.127769 -0.951189
0.034891 -0.126773 -0.951758
0.0338907 -0.126772 -0.951259
0.034858 -0.125776 -0.951828
0.0338576 -0.125775 -0.951329
0.0348249 -0.124779 -0.951898
0.0347919 -0.123782 -0.951968
0.0347588 -0.122785 -0.952038
0.0347257 -0.121788 -0.952108
0.0336923 -0.12079 -0.951678
0.0346927 -0.120791 -0.952178
0.0336765 -0.120326 -0.952212
0.035314 -0.169713 -0.949251
0.0352982 -0.169249 -0.949785
0.0362813 -0.168718 -0.949821
0.0362482 -0.167721 -0.949891
0.0362152 -0.166724 -0.94996
0.0348511 -0.155755 -0.95023
0.0356531 -0.149774 -0.951149
0.03562 -0.148777 -0.951218
0.0355869 -0.14778 -0.951288
0.0355539 -0.146783 -0.951358
0.0345377 -0.146318 -0.951392
0.0343882 -0.141797 -0.951208