<VTKFile type="UnstructuredGrid" version="0.1" byte_order="BigEndian">
  <UnstructuredGrid>
    <Piece NumberOfPoints="12286" NumberOfCells="24572">
      <PointData>
        <DataArray type="Float64" Name="position" NumberOfComponents="3" format="ascii">
0.0529458 -0.141451 -0.954438
0.0529684 -0.141993 -0.954892
0.0539448 -0.14145 -0.95494
0.0538994 -0.140455 -0.955029
0.0529003 -0.140456 -0.954527
0.0528776 -0.140003 -0.955069
0.0529911 -0.142535 -0.955345
0.0530137 -0.143077 -0.955799
0.0539901 -0.142534 -0.955847
0.0539447 -0.141539 -0.955936
0.0538993 -0.140544 -0.956025
0.0528774 -0.140092 -0.956065
0.05399 -0.142623 -0.956844
0.0530136 -0.143166 -0.956795
0.0539446 -0.141628 -0.956932
0.0538991 -0.140633 -0.957021
0.0528773 -0.140181 -0.957061
0.0539899 -0.142712 -0.95784
0.0530135 -0.143255 -0.957791
0.0539444 -0.141717 -0.957928
0.053899 -0.140722 -0.958017
0.0528772 -0.14027 -0.958057
0.0539897 -0.142801 -0.958836
0.0530133 -0.143344 -0.958787
0.0539443 -0.141806 -0.958924
0.0538989 -0.140811 -0.959013
0.0528771 -0.140359 -0.959054
0.0539896 -0.14289 -0.959832
0.0530132 -0.143433 -0.959783
0.0539442 -0.141895 -0.95992
0.0538988 -0.1409 -0.960009
0.052877 -0.140448 -0.96005
0.0529904 -0.14298 -0.960325
0.0529677 -0.142527 -0.960868
0.0539441 -0.141984 -0.960917
0.0538987 -0.140989 -0.961005
0.0528768 -0.140537 -0.961046
0.0529449 -0.142074 -0.96141
0.0528995 -0.141079 -0.961499
0.0509931 -0.142448 -0.953345
0.0510157 -0.14299 -0.953799
0.0519921 -0.142447 -0.953847
0.0519467 -0.141452 -0.953936
0.0509477 -0.141453 -0.953434
0.0519013 -0.140457 -0.954025
0.0509022 -0.140458 -0.953523
0.0508795 -0.140005 -0.954065
0.0510384 -0.143532 -0.954252
0.051061 -0.144073 -0.954706
0.0520374 -0.143531 -0.954754
0.051992 -0.142536 -0.954843
0.0518557 -0.139551 -0.95511
0.0508567 -0.139551 -0.954607
0.0508339 -0.139098 -0.95515
0.0520373 -0.14362 -0.95575
0.0510609 -0.144162 -0.955702
0.0518556 -0.13964 -0.956106
0.0508338 -0.139187 -0.956146
0.0520372 -0.143709 -0.956746
0.0510608 -0.144251 -0.956698
0.0518555 -0.139729 -0.957102
0.0508337 -0.139276 -0.957142
0.0520371 -0.143798 -0.957742
0.0510607 -0.14434 -0.957694
0.0518554 -0.139817 -0.958098
0.0508335 -0.139365 -0.958138
0.0520369 -0.143886 -0.958738
0.0510605 -0.144429 -0.95869
0.0518552 -0.139906 -0.959094
0.0508334 -0.139454 -0.959134
0.0510378 -0.143976 -0.959232
0.051015 -0.143523 -0.959775
0.0508787 -0.140538 -0.960041
0.0508561 -0.139996 -0.959588
0.0509922 -0.14307 -0.960317
0.0509694 -0.142617 -0.96086
0.0508786 -0.140627 -0.961037
0.0509467 -0.142164 -0.961402
0.0509012 -0.141169 -0.961491
0.0489951 -0.14236 -0.951345
0.0490177 -0.142902 -0.951798
0.0499941 -0.142359 -0.951847
0.0499487 -0.141364 -0.951936
0.0489497 -0.141365 -0.951433
0.0489269 -0.140912 -0.951976
0.0490404 -0.143444 -0.952252
0.049063 -0.143986 -0.952705
0.0500394 -0.143443 -0.952754
0.049994 -0.142448 -0.952843
0.0499486 -0.141453 -0.952932
0.0489041 -0.140459 -0.952518
0.0499032 -0.140458 -0.95302
0.0488814 -0.140006 -0.953061
0.0500393 -0.143532 -0.95375
0.0490629 -0.144075 -0.953701
0.0488812 -0.140095 -0.954057
0.0490628 -0.144164 -0.954697
0.0498575 -0.139641 -0.955101
0.0488811 -0.140184 -0.955053
0.0490627 -0.144253 -0.955693
0.0498574 -0.13973 -0.956097
0.048881 -0.140273 -0.956049
0.050039 -0.143799 -0.956738
0.0490399 -0.1438 -0.956236
0.0490171 -0.143347 -0.956778
0.0498573 -0.139819 -0.957093
0.0488809 -0.140362 -0.957045
0.0500388 -0.143888 -0.957734
0.0489944 -0.142894 -0.957321
0.0499934 -0.142893 -0.957823
0.0489716 -0.142441 -0.957863
0.0498571 -0.139908 -0.958089
0.0488807 -0.140451 -0.958041
0.0490397 -0.143978 -0.958228
0.0490623 -0.14452 -0.958682
0.0489942 -0.142983 -0.958317
0.049857 -0.139997 -0.959085
0.0488806 -0.14054 -0.959037
0.0500386 -0.144066 -0.959726
0.0490622 -0.144609 -0.959678
0.0488805 -0.140629 -0.960033
0.0490394 -0.144156 -0.96022
0.0490166 -0.143703 -0.960762
0.049993 -0.14316 -0.960811
0.0488804 -0.140718 -0.961029
0.0489939 -0.143249 -0.961305
0.0489484 -0.142254 -0.961394
0.048903 -0.141259 -0.961483
0.0469969 -0.142451 -0.951336
0.0470195 -0.142993 -0.95179
0.0469741 -0.141998 -0.951879
0.0479505 -0.141455 -0.951927
0.0470422 -0.143535 -0.952243
0.0470648 -0.144077 -0.952697
0.0469513 -0.141545 -0.952421
0.0469285 -0.141092 -0.952963
0.0479049 -0.140549 -0.953012
0.0470875 -0.144619 -0.953151
0.0471101 -0.145161 -0.953604
0.0480865 -0.144618 -0.953653
0.0469058 -0.140639 -0.953506
0.046883 -0.140185 -0.954048
0.0480864 -0.144707 -0.954649
0.04711 -0.145249 -0.9546
0.0468829 -0.140274 -0.955044
0.0480863 -0.144796 -0.955645
0.0471099 -0.145338 -0.955596
0.0468828 -0.140363 -0.95604
0.0480861 -0.144885 -0.956641
0.0471097 -0.145427 -0.956592
0.0480407 -0.14389 -0.95673
0.0468826 -0.140452 -0.957036
0.048086 -0.144974 -0.957637
0.0471096 -0.145516 -0.957588
0.0480406 -0.143978 -0.957726
0.0479952 -0.142983 -0.957815
0.0468825 -0.140541 -0.958033
0.0480859 -0.145062 -0.958633
0.0471095 -0.145605 -0.958584
0.0468824 -0.14063 -0.959029
0.0480858 -0.145151 -0.959629
0.0471094 -0.145694 -0.95958
0.0468823 -0.140719 -0.960025
0.0480857 -0.14524 -0.960625
0.0471092 -0.145783 -0.960576
0.0480402 -0.144245 -0.960714
0.0468821 -0.140808 -0.961021
0.0470865 -0.14533 -0.961119
0.0470637 -0.144877 -0.961661
0.0480401 -0.144334 -0.96171
0.0479947 -0.143339 -0.961799
0.0479493 -0.142344 -0.961888
0.0469274 -0.141892 -0.961928
0.0469048 -0.14135 -0.961474
0.0470409 -0.144424 -0.962204
0.0469955 -0.143429 -0.962293
0.0469501 -0.142434 -0.962381
0.0459977 -0.14254 -0.95183
0.0450439 -0.143625 -0.952235
0.0450666 -0.144167 -0.952689
0.0449985 -0.14263 -0.952324
0.0449757 -0.142177 -0.952866
0.0459521 -0.141634 -0.952915
0.0450892 -0.144709 -0.953142
0.0451119 -0.145251 -0.953596
0.044953 -0.141724 -0.953409
0.0449302 -0.141271 -0.953951
0.0459066 -0.140728 -0.954
0.0451118 -0.14534 -0.954592
0.0449074 -0.140818 -0.954494
0.0448846 -0.140365 -0.955036
0.0451116 -0.145429 -0.955588
0.0448845 -0.140454 -0.956032
0.0451115 -0.145518 -0.956584
0.0449298 -0.141538 -0.956939
0.0449072 -0.140996 -0.956486
0.0459062 -0.140995 -0.956988
0.0451114 -0.145607 -0.95758
0.0459061 -0.141084 -0.957984
0.0449297 -0.141627 -0.957935
0.0451113 -0.145696 -0.958576
0.045906 -0.141173 -0.95898
0.0449296 -0.141716 -0.958931
0.0451111 -0.145785 -0.959572
0.0459059 -0.141262 -0.959976
0.0449294 -0.141805 -0.959927
0.045111 -0.145874 -0.960568
0.0459057 -0.141351 -0.960972
0.0449293 -0.141893 -0.960923
0.0450882 -0.14542 -0.961111
0.0450655 -0.144967 -0.961653
0.0449746 -0.142977 -0.961831
0.044952 -0.142435 -0.961377
0.045951 -0.142435 -0.961879
0.0450427 -0.144514 -0.962195
0.0449973 -0.143519 -0.962284
0.0430912 -0.144622 -0.951142
0.0431139 -0.145164 -0.951595
0.0440903 -0.144621 -0.951644
0.0440449 -0.143626 -0.951733
0.0430458 -0.143627 -0.951231
0.043023 -0.143174 -0.951773
0.0440902 -0.14471 -0.95264
0.0431138 -0.145253 -0.952592
0.0430003 -0.142721 -0.952316
0.0429775 -0.142268 -0.952858
0.0431364 -0.145795 -0.953045
0.0431591 -0.146336 -0.953499
0.0441355 -0.145794 -0.953547
0.0429547 -0.141814 -0.9534
0.042932 -0.141361 -0.953943
0.0441354 -0.145883 -0.954543
0.0431589 -0.146425 -0.954495
0.0439082 -0.140908 -0.954987
0.0429318 -0.14145 -0.954939
0.0441352 -0.145972 -0.955539
0.0431588 -0.146514 -0.955491
0.0439081 -0.140997 -0.955984
0.0429317 -0.141539 -0.955935
0.0441351 -0.146061 -0.956535
0.0431587 -0.146603 -0.956487
0.0429316 -0.141628 -0.956931
0.044135 -0.146149 -0.957531
0.0431586 -0.146692 -0.957483
0.0429315 -0.141717 -0.957927
0.0441349 -0.146238 -0.958527
0.0431585 -0.146781 -0.958479
0.0429313 -0.141806 -0.958923
0.0441347 -0.146327 -0.959524
0.0431583 -0.14687 -0.959475
0.0429312 -0.141895 -0.959919
0.0431356 -0.146417 -0.960017
0.0431128 -0.145964 -0.96056
0.0430219 -0.143974 -0.960737
0.0429993 -0.143432 -0.960284
0.0439983 -0.143431 -0.960786
0.0429539 -0.142437 -0.960373
0.0439529 -0.142436 -0.960875
0.04309 -0.145511 -0.961102
0.0430446 -0.144516 -0.961191
0.0440436 -0.144515 -0.961693
0.0439982 -0.14352 -0.961782
0.041093 -0.144712 -0.951134
0.0411157 -0.145254 -0.951587
0.0410702 -0.144259 -0.951676
0.0420466 -0.143716 -0.951725
0.0411383 -0.145796 -0.952041
0.041161 -0.146338 -0.952494
0.0421374 -0.145795 -0.952543
0.0410475 -0.143806 -0.952218
0.041002 -0.142811 -0.952307
0.0409793 -0.142358 -0.95285
0.0411608 -0.146427 -0.95349
0.0419556 -0.141904 -0.953894
0.0409791 -0.142447 -0.953846
0.0411607 -0.146516 -0.954486
0.0409564 -0.141994 -0.954388
0.0409336 -0.141541 -0.954931
0.0411606 -0.146605 -0.955482
0.0409335 -0.14163 -0.955927
0.0411605 -0.146694 -0.956479
0.0409334 -0.141719 -0.956923
0.0411603 -0.146783 -0.957475
0.0409332 -0.141808 -0.957919
0.0411602 -0.146872 -0.958471
0.0409331 -0.141897 -0.958915
0.0411601 -0.146961 -0.959467
0.0409784 -0.142981 -0.959822
0.0409558 -0.142439 -0.959368
0.0419548 -0.142438 -0.959871
0.0421364 -0.146507 -0.960511
0.04116 -0.147049 -0.960463
0.0410237 -0.144064 -0.960729
0.0410011 -0.143522 -0.960276
0.0411372 -0.146596 -0.961005
0.0411144 -0.146143 -0.961548
0.0420908 -0.145601 -0.961596
0.041069 -0.145148 -0.961636
0.0410464 -0.144606 -0.961183
0.0410917 -0.14569 -0.96209
0.0391856 -0.146793 -0.950948
0.0392083 -0.147335 -0.951401
0.0401847 -0.146792 -0.95145
0.0401393 -0.145797 -0.951539
0.0391402 -0.145798 -0.951036
0.0390948 -0.144803 -0.951125
0.039072 -0.14435 -0.951668
0.0401846 -0.146881 -0.952446
0.0392082 -0.147424 -0.952397
0.0390492 -0.143897 -0.95221
0.0390265 -0.143443 -0.952753
0.0400029 -0.142901 -0.952801
0.0392308 -0.147965 -0.952851
0.0392534 -0.148507 -0.953304
0.0402299 -0.147965 -0.953353
0.0401844 -0.14697 -0.953442
0.0390037 -0.14299 -0.953295
0.0389583 -0.141995 -0.953384
0.0399573 -0.141995 -0.953886
0.0389355 -0.141542 -0.953926
0.0402297 -0.148054 -0.954349
0.0392533 -0.148596 -0.9543
0.0401843 -0.147059 -0.954438
0.0389354 -0.141631 -0.954922
0.0402296 -0.148143 -0.955345
0.0392532 -0.148685 -0.955296
0.0401842 -0.147148 -0.955434
0.0389352 -0.14172 -0.955918
0.0402295 -0.148232 -0.956341
0.0392531 -0.148774 -0.956293
0.0401841 -0.147236 -0.95643
0.0389351 -0.141809 -0.956914
0.0402294 -0.14832 -0.957337
0.039253 -0.148863 -0.957289
0.0401839 -0.147325 -0.957426
0.038935 -0.141898 -0.95791
0.0392302 -0.14841 -0.957831
0.0392074 -0.147957 -0.958373
0.0401838 -0.147414 -0.958422
0.0389349 -0.141987 -0.958906
0.0401837 -0.147503 -0.959418
0.0392073 -0.148046 -0.959369
0.0399566 -0.142528 -0.959862
0.0389348 -0.142076 -0.959902
0.0401836 -0.147592 -0.960414
0.0392072 -0.148135 -0.960365
0.0400019 -0.143612 -0.960769
0.0389801 -0.14316 -0.96081
0.0389574 -0.142618 -0.960356
0.0401834 -0.147681 -0.96141
0.039207 -0.148224 -0.961362
0.040138 -0.146686 -0.961499
0.0400472 -0.144696 -0.961677
0.0390254 -0.144244 -0.961717
0.0390027 -0.143702 -0.961263
0.0391843 -0.147771 -0.961904
0.0391388 -0.146776 -0.961993
0.0390934 -0.145781 -0.962082
0.039048 -0.144786 -0.96217
0.0382778 -0.170585 -0.946815
0.0383004 -0.171127 -0.947269
0.0392768 -0.170585 -0.947317
0.038255 -0.170132 -0.947358
0.0383685 -0.172664 -0.947634
0.0383912 -0.173206 -0.948087
0.0393676 -0.172664 -0.948136
0.0393221 -0.171669 -0.948225
0.0383231 -0.171669 -0.947722
0.0392767 -0.170674 -0.948313
0.0382322 -0.169679 -0.9479
0.0392313 -0.169679 -0.948402
0.0382095 -0.169226 -0.948442
0.0393674 -0.172753 -0.949132
0.038391 -0.173295 -0.949083
0.039322 -0.171758 -0.949221
0.0392766 -0.170763 -0.949309
0.0392312 -0.169768 -0.949398
0.0382093 -0.169315 -0.949439
0.0372328 -0.147878 -0.95085
0.0372555 -0.14842 -0.951304
0.0382319 -0.147877 -0.951353
0.0371874 -0.146883 -0.950939
0.037142 -0.145888 -0.951028
0.0371192 -0.145435 -0.95157
0.0380956 -0.144892 -0.951619
0.0383683 -0.172842 -0.949626
0.0383455 -0.172389 -0.950168
0.0393219 -0.171847 -0.950217
0.0392765 -0.170852 -0.950305
0.039231 -0.169856 -0.950394
0.0382092 -0.169404 -0.950435
0.0382317 -0.147966 -0.952349
0.0372553 -0.148509 -0.9523
0.0370964 -0.144982 -0.952113
0.037051 -0.143987 -0.952202
0.0380046 -0.142991 -0.952793
0.0370056 -0.142992 -0.952291
0.0369828 -0.142539 -0.952833
0.0383227 -0.171936 -0.95071
0.0382999 -0.171483 -0.951253
0.0392763 -0.17094 -0.951302
0.0382319 -0.169946 -0.950888
0.0382545 -0.170488 -0.951342
0.037278 -0.149051 -0.952754
0.0373006 -0.149593 -0.953207
0.038277 -0.14905 -0.953256
0.03696 -0.142086 -0.953375
0.0369373 -0.141633 -0.953918
0.0382772 -0.17103 -0.951795
0.0382769 -0.149139 -0.954252
0.0373005 -0.149682 -0.954203
0.0379135 -0.141179 -0.954963
0.0369145 -0.14118 -0.95446
0.0368917 -0.140727 -0.955003
0.0382768 -0.149228 -0.955248
0.0373004 -0.149771 -0.955199
0.0379134 -0.141268 -0.955959
0.0368916 -0.140816 -0.955999
0.0382767 -0.149317 -0.956244
0.0373003 -0.14986 -0.956195
0.0379133 -0.141357 -0.956955
0.0368915 -0.140905 -0.956995
0.0382766 -0.149406 -0.95724
0.0373001 -0.149949 -0.957191
0.0379132 -0.141446 -0.957951
0.0368913 -0.140994 -0.957991
0.0382764 -0.149495 -0.958236
0.0373 -0.150038 -0.958187
0.038231 -0.1485 -0.958325
0.0379131 -0.141535 -0.958947
0.0368912 -0.141083 -0.958987
0.0382763 -0.149584 -0.959232
0.0372999 -0.150127 -0.959183
0.0382309 -0.148589 -0.959321
0.0369365 -0.142166 -0.959894
0.0369139 -0.141624 -0.959441
0.0382762 -0.149673 -0.960228
0.0372998 -0.150215 -0.96018
0.0382308 -0.148678 -0.960317
0.0379582 -0.142708 -0.96085
0.0369364 -0.142255 -0.96089
0.037277 -0.149762 -0.960722
0.0372542 -0.149309 -0.961264
0.0382306 -0.148767 -0.961313
0.0380035 -0.143792 -0.961757
0.0369817 -0.143339 -0.961797
0.036959 -0.142797 -0.961344
0.0382305 -0.148856 -0.962309
0.0372541 -0.149398 -0.96226
0.0381851 -0.147861 -0.962398
0.0381397 -0.146866 -0.962487
0.0380942 -0.145871 -0.962575
0.0370724 -0.145418 -0.962616
0.0370498 -0.144876 -0.962162
0.0370043 -0.143881 -0.962251
0.0372313 -0.148945 -0.962803
0.0371859 -0.14795 -0.962892
0.0371405 -0.146955 -0.962981
0.0370951 -0.14596 -0.963069
0.0366891 -0.179097 -0.940031
0.0367117 -0.179639 -0.940485
0.0376881 -0.179097 -0.940533
0.0376427 -0.178102 -0.940622
0.0366437 -0.178102 -0.94012
0.0366209 -0.177649 -0.940662
0.0367344 -0.180181 -0.940938
0.036757 -0.180723 -0.941392
0.0377334 -0.180181 -0.941441
0.037688 -0.179186 -0.941529
0.0376426 -0.178191 -0.941618
0.0365981 -0.177196 -0.941205
0.0375972 -0.177196 -0.941707
0.0365754 -0.176743 -0.941747
0.0367797 -0.181265 -0.941846
0.0368023 -0.181807 -0.942299
0.0377787 -0.181265 -0.942348
0.0377333 -0.18027 -0.942437
0.0376879 -0.179275 -0.942525
0.0376425 -0.17828 -0.942614
0.0375971 -0.177285 -0.942703
0.0365752 -0.176832 -0.942743
0.0377786 -0.181354 -0.943344
0.0368022 -0.181896 -0.943295
0.0377332 -0.180359 -0.943433
0.0376878 -0.179363 -0.943521
0.0376424 -0.178368 -0.94361
0.0365979 -0.177374 -0.943197
0.0366205 -0.177916 -0.943651
0.0367794 -0.181443 -0.943838
0.0367567 -0.18099 -0.94438
0.0377331 -0.180447 -0.944429
0.0376877 -0.179452 -0.944517
0.0376422 -0.178457 -0.944606
0.0365978 -0.177463 -0.944193
0.0375968 -0.177462 -0.944695
0.036575 -0.17701 -0.944735
0.0367339 -0.180537 -0.944922
0.0367111 -0.180084 -0.945465
0.0376875 -0.179541 -0.945514
0.0376421 -0.178546 -0.945602
0.0375967 -0.177551 -0.945691
0.0365522 -0.176557 -0.945278
0.0375513 -0.176556 -0.94578
0.0375058 -0.175561 -0.945869
0.0365068 -0.175562 -0.945367
0.0374604 -0.174566 -0.945958
0.0364614 -0.174567 -0.945455
0.037415 -0.173571 -0.946046
0.0364159 -0.173572 -0.945544
0.0373696 -0.172576 -0.946135
0.0363705 -0.172577 -0.945633
0.0363477 -0.172124 -0.946176
0.0366884 -0.179631 -0.946007
0.0366656 -0.179178 -0.94655
0.037642 -0.178635 -0.946598
0.0375966 -0.17764 -0.946687
0.0375511 -0.176645 -0.946776
0.0375057 -0.17565 -0.946865
0.0374603 -0.174655 -0.946954
0.0374149 -0.17366 -0.947043
0.0373695 -0.172665 -0.947131
0.036325 -0.171671 -0.946718
0.037324 -0.17167 -0.94722
0.0362796 -0.170676 -0.946807
0.0372332 -0.16968 -0.947398
0.0362341 -0.169681 -0.946896
0.0371878 -0.168685 -0.947487
0.0361887 -0.168686 -0.946985
0.0371423 -0.16769 -0.947576
0.0361433 -0.167691 -0.947073
0.0361205 -0.167238 -0.947616
0.0376419 -0.178724 -0.947594
0.0366655 -0.179267 -0.947546
0.0375964 -0.177729 -0.947683
0.037551 -0.176734 -0.947772
0.0375056 -0.175739 -0.947861
0.0374602 -0.174744 -0.94795
0.0374148 -0.173749 -0.948039
0.0371876 -0.168774 -0.948483
0.0371422 -0.167779 -0.948572
0.0360977 -0.166785 -0.948158
0.0370968 -0.166784 -0.94866
0.0370514 -0.165789 -0.948749
0.0360523 -0.16579 -0.948247
0.0370059 -0.164794 -0.948838
0.0360069 -0.164795 -0.948336
0.0369605 -0.163799 -0.948927
0.0359615 -0.1638 -0.948425
0.0369151 -0.162804 -0.949016
0.035916 -0.162805 -0.948514
0.0358933 -0.162352 -0.949056
0.0366427 -0.178814 -0.948088
0.0366199 -0.178361 -0.948631
0.0375963 -0.177818 -0.948679
0.0375509 -0.176823 -0.948768
0.0375055 -0.175828 -0.948857
0.03746 -0.174833 -0.948946
0.0374146 -0.173838 -0.949035
0.0371875 -0.168863 -0.949479
0.0371421 -0.167868 -0.949568
0.0370967 -0.166873 -0.949656
0.0370512 -0.165878 -0.949745
0.0370058 -0.164883 -0.949834
0.0369604 -0.163888 -0.949923
0.036915 -0.162893 -0.950012
0.0358705 -0.161899 -0.949598
0.0368696 -0.161898 -0.950101
0.0358477 -0.161446 -0.950141
0.03528 -0.148964 -0.950753
0.0353027 -0.149506 -0.951207
0.0362791 -0.148963 -0.951255
0.0352346 -0.147969 -0.950842
0.0351892 -0.146974 -0.950931
0.0351664 -0.146521 -0.951473
0.0361428 -0.145978 -0.951522
0.0365971 -0.177908 -0.949173
0.0365744 -0.177455 -0.949716
0.0375508 -0.176912 -0.949764
0.0375053 -0.175917 -0.949853
0.0374599 -0.174922 -0.949942
0.0374145 -0.173927 -0.950031
0.0373691 -0.172932 -0.950119
0.0371874 -0.168952 -0.950475
0.037142 -0.167957 -0.950564
0.0370965 -0.166962 -0.950652
0.0370511 -0.165967 -0.950741
0.0370057 -0.164972 -0.95083
0.0369603 -0.163977 -0.950919
0.0369149 -0.162982 -0.951008
0.0368694 -0.161987 -0.951097
0.0358476 -0.161535 -0.951137
0.0353253 -0.150048 -0.95166
0.035348 -0.15059 -0.952114
0.0363244 -0.150047 -0.952163
0.0362789 -0.149052 -0.952251
0.0351436 -0.146067 -0.952016
0.0350982 -0.145072 -0.952105
0.0350528 -0.144077 -0.952193
0.0350073 -0.143082 -0.952282
0.035961 -0.142087 -0.952873
0.0349619 -0.142087 -0.952371
0.0349392 -0.141634 -0.952914
0.0375506 -0.177001 -0.95076
0.0365742 -0.177544 -0.950712
0.0375052 -0.176006 -0.950849
0.0374598 -0.175011 -0.950938
0.0374144 -0.174016 -0.951027
0.037369 -0.173021 -0.951116
0.0373235 -0.172026 -0.951204
0.0372327 -0.170036 -0.951382
0.0371873 -0.169041 -0.951471
0.0371418 -0.168046 -0.95156
0.0370964 -0.167051 -0.951649
0.037051 -0.166056 -0.951737
0.0370056 -0.165061 -0.951826
0.0369602 -0.164066 -0.951915
0.0369147 -0.163071 -0.952004
0.0368693 -0.162076 -0.952093
0.0358475 -0.161624 -0.952133
0.0363242 -0.150136 -0.953159
0.0353478 -0.150678 -0.95311
0.0359154 -0.141181 -0.953958
0.0349164 -0.141181 -0.953456
0.0348936 -0.140728 -0.953998
0.0365515 -0.177091 -0.951254
0.0365287 -0.176638 -0.951796
0.0375051 -0.176095 -0.951845
0.0374597 -0.1751 -0.951934
0.0374143 -0.174105 -0.952023
0.0373688 -0.17311 -0.952112
0.0373234 -0.172115 -0.9522
0.037278 -0.17112 -0.952289
0.0372326 -0.170125 -0.952378
0.0371871 -0.16913 -0.952467
0.0371417 -0.168135 -0.952556
0.0370963 -0.16714 -0.952645
0.0370509 -0.166145 -0.952733
0.0370055 -0.16515 -0.952822
0.03696 -0.164155 -0.952911
0.0359156 -0.163161 -0.952498
0.0359382 -0.163703 -0.952951
0.0358701 -0.162166 -0.952587
0.0353705 -0.15122 -0.953564
0.0353931 -0.151762 -0.954017
0.0363695 -0.15122 -0.954066
0.0363241 -0.150225 -0.954155
0.0358699 -0.140275 -0.955043
0.0348708 -0.140275 -0.954541
0.0348481 -0.139822 -0.955083
0.037505 -0.176184 -0.952841
0.0365286 -0.176727 -0.952793
0.0374596 -0.175189 -0.95293
0.0374141 -0.174194 -0.953019
0.0373687 -0.173199 -0.953108
0.0373233 -0.172204 -0.953196
0.0372779 -0.171209 -0.953285
0.0372324 -0.170214 -0.953374
0.037187 -0.169219 -0.953463
0.0371416 -0.168224 -0.953552
0.0370962 -0.167229 -0.953641
0.0370508 -0.166234 -0.953729
0.0370053 -0.165239 -0.953818
0.0359609 -0.164244 -0.953405
0.0359835 -0.164786 -0.953859
0.0363694 -0.151309 -0.955062
0.035393 -0.151851 -0.955013
0.036324 -0.150314 -0.955151
0.0358698 -0.140363 -0.956039
0.0348253 -0.139369 -0.955626
0.0358243 -0.139368 -0.956128
0.0348025 -0.138916 -0.956168
0.0375049 -0.176273 -0.953837
0.0365285 -0.176815 -0.953789
0.0374594 -0.175278 -0.953926
0.037414 -0.174283 -0.954015
0.0373686 -0.173288 -0.954104
0.0373232 -0.172293 -0.954192
0.0372777 -0.171298 -0.954281
0.0372323 -0.170303 -0.95437
0.0371869 -0.169308 -0.954459
0.0371415 -0.168313 -0.954548
0.0370961 -0.167318 -0.954637
0.0370506 -0.166323 -0.954725
0.0370052 -0.165328 -0.954814
0.0359834 -0.164875 -0.954855
0.0363693 -0.151397 -0.956058
0.0353929 -0.15194 -0.956009
0.0363239 -0.150402 -0.956147
0.0358696 -0.140452 -0.957035
0.0358242 -0.139457 -0.957124
0.0348024 -0.139005 -0.957164
0.0365511 -0.177357 -0.954242
0.0365738 -0.177899 -0.954696
0.0375502 -0.177357 -0.954744
0.0375047 -0.176362 -0.954833
0.0374593 -0.175367 -0.954922
0.0374139 -0.174372 -0.955011
0.0373685 -0.173377 -0.9551
0.037323 -0.172382 -0.955189
0.0372776 -0.171387 -0.955277
0.0372322 -0.170392 -0.955366
0.0371868 -0.169397 -0.955455
0.0371414 -0.168402 -0.955544
0.0370959 -0.167407 -0.955633
0.0370505 -0.166412 -0.955721
0.036006 -0.165417 -0.955308
0.0360287 -0.165959 -0.955762
0.0353701 -0.151487 -0.956552
0.0353473 -0.151034 -0.957094
0.0363237 -0.150491 -0.957143
0.0358695 -0.140541 -0.958031
0.0358241 -0.139546 -0.95812
0.0348023 -0.139094 -0.95816
0.03755 -0.177446 -0.95574
0.0365736 -0.177988 -0.955692
0.0375046 -0.176451 -0.955829
0.0374592 -0.175456 -0.955918
0.0374138 -0.174461 -0.956007
0.0373683 -0.173466 -0.956096
0.0373229 -0.172471 -0.956185
0.0372775 -0.171476 -0.956273
0.0372321 -0.170481 -0.956362
0.0371867 -0.169486 -0.956451
0.0371412 -0.168491 -0.95654
0.0370958 -0.167496 -0.956629
0.0360513 -0.166501 -0.956215
0.036074 -0.167043 -0.956669
0.0363236 -0.15058 -0.958139
0.0353472 -0.151123 -0.95809
0.0358694 -0.14063 -0.959027
0.035824 -0.139635 -0.959116
0.0348021 -0.139183 -0.959156
0.0365963 -0.17853 -0.956145
0.0366189 -0.179072 -0.956599
0.0375953 -0.17853 -0.956648
0.0375499 -0.177535 -0.956736
0.0375045 -0.17654 -0.956825
0.0374591 -0.175545 -0.956914
0.0374136 -0.17455 -0.957003
0.0373682 -0.173555 -0.957092
0.0373228 -0.17256 -0.957181
0.0372774 -0.171564 -0.957269
0.037232 -0.170569 -0.957358
0.0371865 -0.169574 -0.957447
0.0371411 -0.168579 -0.957536
0.0370957 -0.167584 -0.957625
0.0360739 -0.167132 -0.957665
0.0363235 -0.150669 -0.959135
0.0353471 -0.151212 -0.959086
0.0359147 -0.141714 -0.959934
0.0358693 -0.140719 -0.960023
0.0358238 -0.139724 -0.960112
0.034802 -0.139272 -0.960152
0.0375952 -0.178618 -0.957644
0.0366188 -0.179161 -0.957595
0.0375498 -0.177623 -0.957732
0.0375044 -0.176628 -0.957821
0.0374589 -0.175633 -0.95791
0.0374135 -0.174638 -0.957999
0.0373681 -0.173643 -0.958088
0.0373227 -0.172648 -0.958177
0.0372772 -0.171653 -0.958265
0.0372318 -0.170658 -0.958354
0.0371864 -0.169663 -0.958443
0.037141 -0.168668 -0.958532
0.0360965 -0.167674 -0.958119
0.0361192 -0.168216 -0.958572
0.0363234 -0.150758 -0.960131
0.035347 -0.151301 -0.960082
0.0359146 -0.141803 -0.96093
0.0358691 -0.140808 -0.961019
0.0358237 -0.139813 -0.961108
0.0348019 -0.139361 -0.961148
0.036596 -0.178708 -0.958137
0.0365733 -0.178255 -0.95868
0.0375497 -0.177712 -0.958728
0.0375042 -0.176717 -0.958817
0.0374588 -0.175722 -0.958906
0.0374134 -0.174727 -0.958995
0.037368 -0.173732 -0.959084
0.0373225 -0.172737 -0.959173
0.0372771 -0.171742 -0.959261
0.0372317 -0.170747 -0.95935
0.0371863 -0.169752 -0.959439
0.0371409 -0.168757 -0.959528
0.036119 -0.168305 -0.959568
0.0353242 -0.150848 -0.960625
0.0353014 -0.150395 -0.961167
0.0362778 -0.149852 -0.961216
0.0359599 -0.142887 -0.961838
0.0359144 -0.141892 -0.961926
0.035869 -0.140897 -0.962015
0.0348245 -0.139903 -0.961602
0.0348472 -0.140445 -0.962056
0.0365505 -0.177802 -0.959222
0.0365051 -0.176807 -0.959311
0.0364823 -0.176354 -0.959854
0.0374587 -0.175811 -0.959902
0.0374133 -0.174816 -0.959991
0.0373678 -0.173821 -0.96008
0.0373224 -0.172826 -0.960169
0.037277 -0.171831 -0.960258
0.0372316 -0.170836 -0.960346
0.0371862 -0.169841 -0.960435
0.0371407 -0.168846 -0.960524
0.0361189 -0.168394 -0.960564
0.0362777 -0.149941 -0.962212
0.0353013 -0.150484 -0.962163
0.0360506 -0.144966 -0.962656
0.0360052 -0.143971 -0.962745
0.0349833 -0.143519 -0.962785
0.0349607 -0.142977 -0.962331
0.0349153 -0.141982 -0.96242
0.0348698 -0.140987 -0.962509
0.0364595 -0.175901 -0.960396
0.0364141 -0.174906 -0.960485
0.0363913 -0.174453 -0.961027
0.0373677 -0.17391 -0.961076
0.0373223 -0.172915 -0.961165
0.0372769 -0.17192 -0.961254
0.0372315 -0.170925 -0.961342
0.037186 -0.16993 -0.961431
0.0371406 -0.168935 -0.96152
0.0361188 -0.168483 -0.96156
0.0352785 -0.150031 -0.962706
0.0352558 -0.149578 -0.963248
0.0362322 -0.149035 -0.963297
0.0361867 -0.14804 -0.963386
0.0351649 -0.147588 -0.963426
0.0351423 -0.147046 -0.962972
0.0350968 -0.146051 -0.963061
0.0350514 -0.145056 -0.96315
0.035006 -0.144061 -0.963239
0.0363685 -0.174 -0.96157
0.0363231 -0.173005 -0.961659
0.0362777 -0.17201 -0.961747
0.0362549 -0.171557 -0.96229
0.0372313 -0.171014 -0.962338
0.0371859 -0.170019 -0.962427
0.0371405 -0.169024 -0.962516
0.0361187 -0.168572 -0.962556
0.035233 -0.149125 -0.963791
0.0351876 -0.14813 -0.963879
0.0362322 -0.171104 -0.962832
0.0361867 -0.170109 -0.962921
0.0361413 -0.169114 -0.96301
0.0356899 -0.179187 -0.940525
0.0346681 -0.178735 -0.940565
0.0346454 -0.178193 -0.940112
0.0355991 -0.177197 -0.940703
0.0346 -0.177198 -0.9402
0.0345772 -0.176745 -0.940743
0.0347816 -0.181267 -0.940841
0.0348042 -0.181809 -0.941295
0.0357806 -0.181266 -0.941343
0.0347362 -0.180272 -0.94093
0.0346907 -0.179277 -0.941019
0.0355535 -0.176291 -0.941788
0.0345545 -0.176292 -0.941285
0.0345317 -0.175839 -0.941828
0.0348041 -0.181898 -0.942291
0.0355534 -0.17638 -0.942784
0.0345089 -0.175386 -0.94237
0.035508 -0.175385 -0.942872
0.0344862 -0.174933 -0.942913
0.034804 -0.181987 -0.943287
0.0355987 -0.177464 -0.943691
0.0355533 -0.176469 -0.94378
0.0355079 -0.175474 -0.943868
0.0344634 -0.17448 -0.943455
0.0354624 -0.174479 -0.943957
0.0344406 -0.174027 -0.943998
0.0357803 -0.181533 -0.944331
0.0348039 -0.182076 -0.944283
0.0355532 -0.176558 -0.944776
0.0355077 -0.175563 -0.944864
0.0354623 -0.174568 -0.944953
0.0344178 -0.173574 -0.94454
0.0354169 -0.173573 -0.945042
0.0343951 -0.173121 -0.945082
0.0357801 -0.181622 -0.945328
0.0348037 -0.182165 -0.945279
0.0357347 -0.180627 -0.945416
0.0343949 -0.17321 -0.946078
0.0353713 -0.172667 -0.946127
0.03578 -0.181711 -0.946324
0.0348036 -0.182254 -0.946275
0.0357346 -0.180716 -0.946412
0.0356892 -0.179721 -0.946501
0.0343722 -0.172756 -0.946621
0.0343267 -0.171761 -0.94671
0.0342813 -0.170766 -0.946799
0.0342585 -0.170313 -0.947341
0.0352349 -0.169771 -0.94739
0.0351895 -0.168776 -0.947478
0.0351441 -0.167781 -0.947567
0.0347808 -0.1818 -0.946817
0.0347581 -0.181347 -0.94736
0.0357345 -0.180805 -0.947408
0.0356891 -0.17981 -0.947497
0.0342358 -0.16986 -0.947883
0.0341904 -0.168865 -0.947972
0.035144 -0.16787 -0.948563
0.0341676 -0.168412 -0.948515
0.0350986 -0.166875 -0.948652
0.0350531 -0.16588 -0.948741
0.0350077 -0.164885 -0.94883
0.0349623 -0.16389 -0.948919
0.0349169 -0.162895 -0.949007
0.0338724 -0.1619 -0.948594
0.033895 -0.162442 -0.949048
0.0348714 -0.1619 -0.949096
0.034826 -0.160904 -0.949185
0.033827 -0.160905 -0.948683
0.0347806 -0.159909 -0.949274
0.0337815 -0.15991 -0.948772
0.0347352 -0.158914 -0.949363
0.0337361 -0.158915 -0.948861
0.0346898 -0.157919 -0.949452
0.0336907 -0.15792 -0.948949
0.0336679 -0.157467 -0.949492
0.0333727 -0.150955 -0.949571
0.0333954 -0.151497 -0.950025
0.0343718 -0.150954 -0.950073
0.0343264 -0.149959 -0.950162
0.0333273 -0.14996 -0.94966
0.034281 -0.148964 -0.950251
0.0332819 -0.148965 -0.949749
0.0332591 -0.148512 -0.950291
0.0326914 -0.13603 -0.950904
0.0327141 -0.136572 -0.951357
0.0336905 -0.136029 -0.951406
0.033645 -0.135034 -0.951495
0.032646 -0.135035 -0.950993
0.0335996 -0.134039 -0.951584
0.0326006 -0.13404 -0.951081
0.0335542 -0.133044 -0.951672
0.0325551 -0.133045 -0.95117
0.0325324 -0.132592 -0.951713
0.0357344 -0.180894 -0.948404
0.034758 -0.181436 -0.948356
0.0356889 -0.179899 -0.948493
0.0356435 -0.178904 -0.948582
0.0341448 -0.167959 -0.949057
0.0350984 -0.166963 -0.949648
0.034122 -0.167506 -0.9496
0.034054 -0.165969 -0.949235
0.0340766 -0.166511 -0.949688
0.0340085 -0.164974 -0.949324
0.0339631 -0.163979 -0.949412
0.0339177 -0.162984 -0.949501
0.0348259 -0.160993 -0.950181
0.0347805 -0.159998 -0.95027
0.0347351 -0.159003 -0.950359
0.0346896 -0.158008 -0.950448
0.0336678 -0.157556 -0.950488
0.033418 -0.152039 -0.950478
0.0334407 -0.152581 -0.950932
0.0344171 -0.152038 -0.950981
0.0343717 -0.151043 -0.951069
0.0343263 -0.150048 -0.951158
0.0332364 -0.148059 -0.950834
0.0331909 -0.147064 -0.950923
0.0341446 -0.146068 -0.951514
0.0331455 -0.146069 -0.951011
0.0340991 -0.145073 -0.951602
0.0331001 -0.145074 -0.9511
0.0340537 -0.144078 -0.951691
0.0330547 -0.144079 -0.951189
0.0340083 -0.143083 -0.95178
0.0330092 -0.143084 -0.951278
0.0339629 -0.142088 -0.951869
0.0329638 -0.142089 -0.951367
0.0339174 -0.141093 -0.951958
0.0329184 -0.141094 -0.951456
0.033872 -0.140098 -0.952047
0.032873 -0.140099 -0.951544
0.0338266 -0.139103 -0.952135
0.0328276 -0.139104 -0.951633
0.0337812 -0.138108 -0.952224
0.0327821 -0.138109 -0.951722
0.0337358 -0.137113 -0.952313
0.0327367 -0.137114 -0.951811
0.0336903 -0.136118 -0.952402
0.0336449 -0.135123 -0.952491
0.0335995 -0.134128 -0.95258
0.0335541 -0.133133 -0.952668
0.0325096 -0.132139 -0.952255
0.0335086 -0.132138 -0.952757
0.0324868 -0.131686 -0.952797
0.0347352 -0.180983 -0.948898
0.0347124 -0.18053 -0.949441
0.0356888 -0.179988 -0.949489
0.0356434 -0.178993 -0.949578
0.035598 -0.177998 -0.949667
0.0340993 -0.167053 -0.950142
0.0348258 -0.161082 -0.951177
0.0347804 -0.160087 -0.951266
0.0347349 -0.159092 -0.951355
0.0346895 -0.158097 -0.951444
0.0336677 -0.157645 -0.951484
0.0334633 -0.153123 -0.951386